 *******************************************************************************
 ** Cite this program as: MOPAC2016, Version: 22.047L, James J. P. Stewart,   **
 **                           web-site: HTTP://OpenMOPAC.net.                 **
 *******************************************************************************
 **                                                                           **
 **                                MOPAC2016                                  **
 **                                                                           **
 *******************************************************************************

                              PM6 CALCULATION RESULTS

 *******************************************************************************
 *  CALCULATION DONE:                                Fri Feb 25 11:14:56 2022  *
 *  PM6        - The PM6 Hamiltonian to be used
 *  T=         - A TIME OF 172800.0 SECONDS REQUESTED
 *  DUMP=N     - RESTART FILE WRITTEN EVERY 7200.0 SECONDS REQUESTED
 *  SCFCRT     - DEFAULT SCF CRITERION REPLACED BY   0.100E-20
 *  AUX        - OUTPUT AUXILIARY INFORMATION
 *******************************************************************************



                    PARAMETER DEPENDENCE DATA

        REFERENCE ATOM      FUNCTION NO.    DEPENDENT ATOM(S)
            2                  1               3
            4                  1               5
            4                  2               5

             DESCRIPTIONS OF THE FUNCTIONS USED
 
scfcrt=1.D-21 aux(precision=14) PM6 SYMMETRY
 Comment line 1
 Comment line 2
  ATOM    CHEMICAL      BOND LENGTH      BOND ANGLE     TWIST ANGLE 
 NUMBER    SYMBOL       (ANGSTROMS)      (DEGREES)       (DEGREES) 
   (I)                     NA:I           NB:NA:I       NC:NB:NA:I       NA    NB    NC 
     1       C          0.00000000       0.0000000       0.0000000        0     0     0
     2       C          1.42101898  *    0.0000000       0.0000000        1     0     0
     3       C          1.42101898      55.6013314  *    0.0000000        1     2     0
     4       H          1.07692776  *  147.8148823  *  180.0000000        2     1     3
     5       H          1.07692776     147.8148823     180.0000000        3     1     2
 


          CARTESIAN COORDINATES 

    NO.       ATOM           X           Y           Z

     1         C          0.0000      0.0000      0.0000
     2         C          1.4210      0.0000      0.0000
     3         C          0.8028      1.1725      0.0000
     4         H          2.3325     -0.5736      0.0000
     5         H          0.8444      2.2486     -0.0000

 General Reference for PM6:
 "Optimization of Parameters for Semiempirical Methods V: Modification of NDDO Approximations
 and Application to 70 Elements", J. J. P. Stewart, J. Mol. Mod., 13, 1173-1213 (2007)
 URL: https://link.springer.com/article/10.1007/s00894-007-0233-4

           Empirical Formula: C3 H2  =     5 atoms



      MOLECULAR POINT GROUP   :   C2v 


      RHF CALCULATION, NO. OF DOUBLY OCCUPIED LEVELS = 7


          Geometry optimization using EF
  SCF CRITERION =    0.1000E-20


   THERE IS A RISK OF INFINITE LOOPING WITH THE SCFCRT LESS THAN 1.D-12

          DIAGONAL MATRIX USED AS START HESSIAN

 CYCLE:     1 TIME:   0.004 TIME LEFT:  2.00D  GRAD.:    84.088 HEAT:  127.8518
 CYCLE:     2 TIME:   0.004 TIME LEFT:  2.00D  GRAD.:    57.217 HEAT:  127.3062
 CYCLE:     3 TIME:   0.004 TIME LEFT:  2.00D  GRAD.:     8.949 HEAT:  126.7588
 CYCLE:     4 TIME:   0.004 TIME LEFT:  2.00D  GRAD.:     5.725 HEAT:  126.6750
 CYCLE:     5 TIME:   0.000 TIME LEFT:  2.00D  GRAD.:     3.234 HEAT:  126.6081
 CYCLE:     6 TIME:   0.004 TIME LEFT:  2.00D  GRAD.:     0.639 HEAT:  126.6029

     GRADIENT =  0.63943 IS LESS THAN CUTOFF =  1.00000



 -------------------------------------------------------------------------------
 scfcrt=1.D-21 aux(precision=14) PM6 SYMMETRY
 Comment line 1
 Comment line 2


     GEOMETRY OPTIMISED USING EIGENVECTOR FOLLOWING (EF).     
     SCF FIELD WAS ACHIEVED                                   


                              PM6 CALCULATION
                                                       MOPAC2016 (Version: 22.047L)
                                                       Fri Feb 25 11:14:56 2022




          FINAL HEAT OF FORMATION =        126.60293 KCAL/MOL =     529.70666 KJ/MOL


          COSMO AREA              =         79.87 SQUARE ANGSTROMS
          COSMO VOLUME            =         63.37 CUBIC ANGSTROMS

          GRADIENT NORM           =          0.63943          =       0.28596 PER ATOM
          IONIZATION POTENTIAL    =         10.262839 EV
          HOMO LUMO ENERGIES (EV) =        -10.263 -0.229
          NO. OF FILLED LEVELS    =          7
          MOLECULAR WEIGHT        =         38.0488         POINT GROUP:  C2v 

          MOLECULAR DIMENSIONS (Angstroms)

            Atom       Atom       Distance
            H     5    H     4     3.11604
            H     4    C     1     1.84434
            C     3    C     2     0.00000


          SCF CALCULATIONS        =          9
 
          WALL-CLOCK TIME         =          0.031 SECONDS
          COMPUTATION TIME        =          0.018 SECONDS




  ATOM    CHEMICAL      BOND LENGTH      BOND ANGLE     TWIST ANGLE 
 NUMBER    SYMBOL       (ANGSTROMS)      (DEGREES)       (DEGREES) 
   (I)                     NA:I           NB:NA:I       NC:NB:NA:I       NA    NB    NC 
     1       C          0.00000000       0.0000000       0.0000000        0     0     0
     2       C          1.43619964  *    0.0000000       0.0000000        1     0     0
     3       C          1.43619964      56.1817522  *    0.0000000        1     2     0
     4       H          1.05394263  *  151.3055564  *  180.0000000        2     1     3
     5       H          1.05394263     151.3055564     180.0000000        3     1     2

                             CARTESIAN COORDINATES

   1    C        0.000000000     0.000000000     0.000000000
   2    C        1.436199644     0.000000000     0.000000000
   3    C        0.799331622     1.193205085     0.000000000
   4    H        2.360710454    -0.506038360     0.000000000
   5    H        0.893457242     2.242936206    -0.000000000


           Empirical Formula: C3 H2  =     5 atoms



      MOLECULAR POINT GROUP   :   C2v 


                  EIGENVALUES  
 -30.61190 -20.62504 -19.26540 -14.69607 -12.76589 -12.03785 -10.26284  -0.22867
   0.99342   3.02397   4.43574   4.72264   5.26707   5.56542


              NET ATOMIC CHARGES AND DIPOLE CONTRIBUTIONS

  ATOM NO.   TYPE          CHARGE      No. of ELECS.   s-Pop       p-Pop       
    1          C           0.153186        3.8468     1.63778     2.20904
    2          C          -0.273159        4.2732     1.15638     3.11678
    3          C          -0.273159        4.2732     1.15638     3.11678
    4          H           0.196566        0.8034     0.80343
    5          H           0.196566        0.8034     0.80343
 DIPOLE           X         Y         Z       TOTAL
 POINT-CHG.     0.139     0.074     0.000     0.158
 HYBRID         2.105     1.124    -0.000     2.387
 SUM            2.245     1.198    -0.000     2.545


          ATOMIC ORBITAL ELECTRON POPULATIONS

     Atom    s        px        py        pz   
    1  C   1.63778   1.01751   0.86345   0.32807
    2  C   1.15638   1.15859   1.12223   0.83596
    3  C   1.15638   1.22903   1.05179   0.83596
    4  H   0.80343
    5  H   0.80343

 **********************
 *                    *
 * JOB ENDED NORMALLY *
 *                    *
 **********************



 TOTAL JOB TIME:             0.04 SECONDS

 == MOPAC DONE ==


          MOPAC Job: "opt/opt.inp" ended normally on Feb 25, 2022, at 11:14.

Fri Feb 25 11:14:56 CST 2022
