 *******************************************************************************
 **                                                                           **
 **                              MOPAC v22.0.4                                **
 **                                                                           **
 *******************************************************************************
 **          Digital Object Identifier (DOI): 10.5281/zenodo.6511958          **
 **    Visit the DOI location for information on how to cite this program.    **
 *******************************************************************************

                              PM6 CALCULATION RESULTS

 *******************************************************************************
 *  CALCULATION DONE:                                Thu Aug 29 17:00:29 2024  *
 *  PM6        - The PM6 Hamiltonian to be used
 *  SINGLET    - SPIN STATE DEFINED AS A SINGLET
 *
 *
 *
 *                 CHARGE ON SYSTEM = 0
 *
 *
 *
 *
 *  EXTERNAL=n -  DEFAULT PARAMETERS RESET USING DATA IN FILES: 
 *                 "params.dat"
 *  XYZ        - CARTESIAN COORDINATE SYSTEM TO BE USED
 *  THREADS=1  - MULTI-THREADING NOT USED
 *  T=         - A TIME OF 172800.0 SECONDS REQUESTED
 *  DUMP=N     - RESTART FILE WRITTEN EVERY 7200.0 SECONDS REQUESTED
 *  GNORM      - EXIT WHEN GRADIENT NORM DROPS BELOW 0.000
 *  SCFCRT     - DEFAULT SCF CRITERION REPLACED BY   0.100E-20
 *  AUX        - OUTPUT AUXILIARY INFORMATION
 *******************************************************************************
gnorm=0.0 scfcrt=1.D-21 aux(precision=14 comp xp xs xw) PM6 SINGLET THREADS=1 external=params.dat charge=0 XYZ
 Comment line 1
 Comment line 2
   ATOM   CHEMICAL          X               Y               Z
  NUMBER   SYMBOL      (ANGSTROMS)     (ANGSTROMS)     (ANGSTROMS)

     1       C         -3.13929100  *  -5.60381000  *   0.00000000  *
     2       C         -2.65732700  *  -6.88706200  *   0.00000000  *
     3       C         -1.24902200  *  -7.13203800  *   0.00000000  *
     4       C         -0.36159200  *  -6.08605200  *   0.00000000  *
     5       C         -0.82103000  *  -4.72997700  *   0.00000000  *
     6       C          0.06511300  *  -3.64397800  *   0.00000000  *
     7       C         -0.37462200  *  -2.31106900  *   0.00000000  *
     8       C         -1.80548900  *  -2.06798900  *   0.00000000  *
     9       C         -2.28895900  *  -0.73922200  *   0.00000000  *
    10       C         -1.43347400  *   0.35701100  *   0.00000000  *
    11       C         -1.93033000  *   1.69491200  *  -0.00000000  *
    12       C         -1.09142900  *   2.78964500  *  -0.00000000  *
    13       C         -1.59170400  *   4.14603500  *  -0.00000000  *
    14       C         -0.75053000  *   5.21217000  *  -0.00000000  *
    15       C          0.68593600  *   5.04145700  *  -0.00000000  *
    16       C          1.21632300  *   3.70687700  *  -0.00000000  *
    17       C          2.63923600  *   3.50891200  *  -0.00000000  *
    18       C          3.14438600  *   2.19291000  *  -0.00000000  *
    19       C          2.29841200  *   1.08293600  *  -0.00000000  *
    20       C          0.87239700  *   1.27120000  *  -0.00000000  *
    21       C          0.34466900  *   2.58839800  *  -0.00000000  *
    22       C          0.00000000  *   0.13766700  *  -0.00000000  *
    23       C          0.52576600  *  -1.17773600  *   0.00000000  *
    24       C          1.95310100  *  -1.33321700  *   0.00000000  *
    25       C          2.79791900  *  -0.26064500  *  -0.00000000  *
    26       H          3.87469600  *  -0.41492300  *  -0.00000000  *
    27       H          2.38223800  *  -2.32920100  *   0.00000000  *
    28       H          4.22213900  *   2.04006400  *  -0.00000000  *
    29       C          3.49017100  *   4.65100400  *  -0.00000000  *
    30       H          4.56762000  *   4.50242900  *  -0.00000000  *
    31       C          2.96019600  *   5.92618600  *  -0.00000000  *
    32       C          1.56344200  *   6.12441100  *  -0.00000000  *
    33       H          1.16165700  *   7.13526400  *  -0.00000000  *
    34       H          3.62232000  *   6.78838800  *  -0.00000000  *
    35       H         -1.14689100  *   6.22529700  *  -0.00000000  *
    36       H         -2.66937300  *   4.29466300  *  -0.00000000  *
    37       H         -3.00843800  *   1.84546600  *  -0.00000000  *
    38       H         -3.36481000  *  -0.57440400  *   0.00000000  *
    39       C         -2.69501700  *  -3.16112700  *   0.00000000  *
    40       C         -2.24589000  *  -4.48263500  *   0.00000000  *
    41       H         -3.76548700  *  -2.96279500  *   0.00000000  *
    42       H          1.12728100  *  -3.86808300  *   0.00000000  *
    43       H          0.71035900  *  -6.27266500  *   0.00000000  *
    44       H         -0.88541100  *  -8.15641800  *   0.00000000  *
    45       H         -3.34526700  *  -7.72874400  *   0.00000000  *
    46       H         -4.21080100  *  -5.41538700  *   0.00000000  *



          CARTESIAN COORDINATES 

    NO.       ATOM           X           Y           Z

     1         C         -3.1393     -5.6038      0.0000
     2         C         -2.6573     -6.8871      0.0000
     3         C         -1.2490     -7.1320      0.0000
     4         C         -0.3616     -6.0861      0.0000
     5         C         -0.8210     -4.7300      0.0000
     6         C          0.0651     -3.6440      0.0000
     7         C         -0.3746     -2.3111      0.0000
     8         C         -1.8055     -2.0680      0.0000
     9         C         -2.2890     -0.7392      0.0000
    10         C         -1.4335      0.3570      0.0000
    11         C         -1.9303      1.6949     -0.0000
    12         C         -1.0914      2.7896     -0.0000
    13         C         -1.5917      4.1460     -0.0000
    14         C         -0.7505      5.2122     -0.0000
    15         C          0.6859      5.0415     -0.0000
    16         C          1.2163      3.7069     -0.0000
    17         C          2.6392      3.5089     -0.0000
    18         C          3.1444      2.1929     -0.0000
    19         C          2.2984      1.0829     -0.0000
    20         C          0.8724      1.2712     -0.0000
    21         C          0.3447      2.5884     -0.0000
    22         C          0.0000      0.1377     -0.0000
    23         C          0.5258     -1.1777      0.0000
    24         C          1.9531     -1.3332      0.0000
    25         C          2.7979     -0.2606     -0.0000
    26         H          3.8747     -0.4149     -0.0000
    27         H          2.3822     -2.3292      0.0000
    28         H          4.2221      2.0401     -0.0000
    29         C          3.4902      4.6510     -0.0000
    30         H          4.5676      4.5024     -0.0000
    31         C          2.9602      5.9262     -0.0000
    32         C          1.5634      6.1244     -0.0000
    33         H          1.1617      7.1353     -0.0000
    34         H          3.6223      6.7884     -0.0000
    35         H         -1.1469      6.2253     -0.0000
    36         H         -2.6694      4.2947     -0.0000
    37         H         -3.0084      1.8455     -0.0000
    38         H         -3.3648     -0.5744      0.0000
    39         C         -2.6950     -3.1611      0.0000
    40         C         -2.2459     -4.4826      0.0000
    41         H         -3.7655     -2.9628      0.0000
    42         H          1.1273     -3.8681      0.0000
    43         H          0.7104     -6.2727      0.0000
    44         H         -0.8854     -8.1564      0.0000
    45         H         -3.3453     -7.7287      0.0000
    46         H         -4.2108     -5.4154      0.0000

 Parameters read in from file: "params.dat"


         Parameters read in

      Parameter Type  Element    Parameter
            USS           H     -12.81632400
            ZS            H       1.22532200
            BETAS         H     -10.50053100
            GSS           H      16.91661800
            USS           C     -50.94256200
            UPP           C     -38.53702100
            ZS            C       1.59380900
            ZP            C       1.60841500
            BETAS         C     -18.28095300
            BETAP         C      -6.25139200
            GSS           C      14.19934400
            GSP           C       9.53485000
            GPP           C      12.34435200
            GP2           C      10.48061200
            HSP           C       0.28120000
            FN11          C       0.07252000

 General Reference for PM6:
 "Optimization of Parameters for Semiempirical Methods V: Modification of NDDO Approximations
 and Application to 70 Elements", J. J. P. Stewart, J. Mol. Mod., 13, 1173-1213 (2007)
 URL: https://link.springer.com/article/10.1007/s00894-007-0233-4

           Empirical Formula: C30 H16  =    46 atoms



      MOLECULAR POINT GROUP   :   Cs  


 SINGLET STATE CALCULATION


      RHF CALCULATION, NO. OF DOUBLY OCCUPIED LEVELS = 68


          Geometry optimization using L-BFGS

  GNORM HAS BEEN SET TOO LOW, RESET TO 0.01
  SCF CRITERION =    0.1000E-20


   THERE IS A RISK OF INFINITE LOOPING WITH THE SCFCRT LESS THAN 1.D-12
 CYCLE:     1 TIME:   0.902 TIME LEFT:  2.00D  GRAD.:   369.073 HEAT:  222.8696
 CYCLE:     2 TIME:   0.672 TIME LEFT:  2.00D  GRAD.:   362.661 HEAT:  221.5194
 CYCLE:     3 TIME:   0.793 TIME LEFT:  2.00D  GRAD.:   191.187 HEAT:  161.1180
 CYCLE:     4 TIME:   0.676 TIME LEFT:  2.00D  GRAD.:   362.657 HEAT:  221.5183
 CYCLE:     5 TIME:   0.676 TIME LEFT:  2.00D  GRAD.:   170.457 HEAT:  139.6210
 CYCLE:     6 TIME:   0.773 TIME LEFT:  2.00D  GRAD.:   145.031 HEAT:  122.9684
 CYCLE:     7 TIME:   0.816 TIME LEFT:  2.00D  GRAD.:   271.457 HEAT:  124.5922
 CYCLE:     8 TIME:   0.660 TIME LEFT:  2.00D  GRAD.:    44.273 HEAT:  108.2221
 CYCLE:     9 TIME:   0.715 TIME LEFT:  2.00D  GRAD.:    35.300 HEAT:  107.2985
 CYCLE:    10 TIME:   0.684 TIME LEFT:  2.00D  GRAD.:    41.676 HEAT:  104.9631
 CYCLE:    11 TIME:   0.676 TIME LEFT:  2.00D  GRAD.:    84.617 HEAT:  102.5782
 CYCLE:    12 TIME:   0.582 TIME LEFT:  2.00D  GRAD.:    50.427 HEAT:  100.0050
 CYCLE:    13 TIME:   0.746 TIME LEFT:  2.00D  GRAD.:    32.864 HEAT:  98.16852
 CYCLE:    14 TIME:   0.629 TIME LEFT:  2.00D  GRAD.:    36.440 HEAT:  96.97681
 CYCLE:    15 TIME:   0.879 TIME LEFT:  2.00D  GRAD.:    36.378 HEAT:  96.04901
 CYCLE:    16 TIME:   0.582 TIME LEFT:  2.00D  GRAD.:    23.719 HEAT:  95.36297
 CYCLE:    17 TIME:   0.637 TIME LEFT:  2.00D  GRAD.:    18.622 HEAT:  94.92225
 CYCLE:    18 TIME:   0.582 TIME LEFT:  2.00D  GRAD.:    14.281 HEAT:  94.69395
 CYCLE:    19 TIME:   0.738 TIME LEFT:  2.00D  GRAD.:    11.243 HEAT:  94.53149
 CYCLE:    20 TIME:   0.816 TIME LEFT:  2.00D  GRAD.:    11.369 HEAT:  94.47219
 CYCLE:    21 TIME:   0.555 TIME LEFT:  2.00D  GRAD.:     6.291 HEAT:  94.43248
 CYCLE:    22 TIME:   0.594 TIME LEFT:  2.00D  GRAD.:     4.202 HEAT:  94.39634
 CYCLE:    23 TIME:   0.492 TIME LEFT:  2.00D  GRAD.:     4.618 HEAT:  94.37285
 CYCLE:    24 TIME:   0.645 TIME LEFT:  2.00D  GRAD.:    10.654 HEAT:  94.37021
 CYCLE:    25 TIME:   0.598 TIME LEFT:  2.00D  GRAD.:     2.612 HEAT:  94.34686
 CYCLE:    26 TIME:   0.629 TIME LEFT:  2.00D  GRAD.:     1.740 HEAT:  94.34272
 CYCLE:    27 TIME:   0.781 TIME LEFT:  2.00D  GRAD.:     1.839 HEAT:  94.33753
 CYCLE:    28 TIME:   0.637 TIME LEFT:  2.00D  GRAD.:     2.646 HEAT:  94.33324
 CYCLE:    29 TIME:   0.695 TIME LEFT:  2.00D  GRAD.:     1.436 HEAT:  94.32961
 CYCLE:    30 TIME:   0.820 TIME LEFT:  2.00D  GRAD.:     0.963 HEAT:  94.32817
 CYCLE:    31 TIME:   0.570 TIME LEFT:  2.00D  GRAD.:     0.836 HEAT:  94.32734
 CYCLE:    32 TIME:   0.492 TIME LEFT:  2.00D  GRAD.:     0.759 HEAT:  94.32670
 CYCLE:    33 TIME:   0.566 TIME LEFT:  2.00D  GRAD.:     0.816 HEAT:  94.32574
 CYCLE:    34 TIME:   0.656 TIME LEFT:  2.00D  GRAD.:     1.226 HEAT:  94.32537
 CYCLE:    35 TIME:   0.508 TIME LEFT:  2.00D  GRAD.:     0.608 HEAT:  94.32494
 CYCLE:    36 TIME:   0.566 TIME LEFT:  2.00D  GRAD.:     0.640 HEAT:  94.32449
 CYCLE:    37 TIME:   0.570 TIME LEFT:  2.00D  GRAD.:     0.865 HEAT:  94.32399
 CYCLE:    38 TIME:   0.688 TIME LEFT:  2.00D  GRAD.:     0.907 HEAT:  94.32328
 CYCLE:    39 TIME:   0.508 TIME LEFT:  2.00D  GRAD.:     1.312 HEAT:  94.32312
 CYCLE:    40 TIME:   0.594 TIME LEFT:  2.00D  GRAD.:     0.404 HEAT:  94.32266
 CYCLE:    41 TIME:   0.746 TIME LEFT:  2.00D  GRAD.:     0.393 HEAT:  94.32253
 CYCLE:    42 TIME:   0.598 TIME LEFT:  2.00D  GRAD.:     0.571 HEAT:  94.32226
 CYCLE:    43 TIME:   0.574 TIME LEFT:  2.00D  GRAD.:     0.857 HEAT:  94.32187
 CYCLE:    44 TIME:   0.660 TIME LEFT:  2.00D  GRAD.:     0.734 HEAT:  94.32146
 CYCLE:    45 TIME:   0.770 TIME LEFT:  2.00D  GRAD.:     0.492 HEAT:  94.32110
 CYCLE:    46 TIME:   0.594 TIME LEFT:  2.00D  GRAD.:     0.641 HEAT:  94.32072
 CYCLE:    47 TIME:   0.633 TIME LEFT:  2.00D  GRAD.:     0.692 HEAT:  94.32046
 CYCLE:    48 TIME:   0.551 TIME LEFT:  2.00D  GRAD.:     0.562 HEAT:  94.32007
 CYCLE:    49 TIME:   0.641 TIME LEFT:  2.00D  GRAD.:     1.229 HEAT:  94.31989
 CYCLE:    50 TIME:   0.688 TIME LEFT:  2.00D  GRAD.:     0.404 HEAT:  94.31952
 CYCLE:    51 TIME:   0.617 TIME LEFT:  2.00D  GRAD.:     0.339 HEAT:  94.31941
 CYCLE:    52 TIME:   0.637 TIME LEFT:  2.00D  GRAD.:     0.333 HEAT:  94.31924
 CYCLE:    53 TIME:   0.676 TIME LEFT:  2.00D  GRAD.:     0.820 HEAT:  94.31920
 CYCLE:    54 TIME:   0.469 TIME LEFT:  2.00D  GRAD.:     0.292 HEAT:  94.31906
 CYCLE:    55 TIME:   0.664 TIME LEFT:  2.00D  GRAD.:     0.207 HEAT:  94.31900
 CYCLE:    56 TIME:   0.652 TIME LEFT:  2.00D  GRAD.:     0.261 HEAT:  94.31892
 CYCLE:    57 TIME:   0.590 TIME LEFT:  2.00D  GRAD.:     0.275 HEAT:  94.31884
 CYCLE:    58 TIME:   0.523 TIME LEFT:  2.00D  GRAD.:     0.776 HEAT:  94.31889
 CYCLE:    59 TIME:   0.727 TIME LEFT:  2.00D  GRAD.:     0.134 HEAT:  94.31877
 CYCLE:    60 TIME:   0.520 TIME LEFT:  2.00D  GRAD.:     0.112 HEAT:  94.31875
 CYCLE:    61 TIME:   0.578 TIME LEFT:  2.00D  GRAD.:     0.141 HEAT:  94.31873
 CYCLE:    62 TIME:   0.492 TIME LEFT:  2.00D  GRAD.:     0.391 HEAT:  94.31873
 CYCLE:    63 TIME:   0.504 TIME LEFT:  2.00D  GRAD.:     0.100 HEAT:  94.31871
 CYCLE:    64 TIME:   0.547 TIME LEFT:  2.00D  GRAD.:     0.060 HEAT:  94.31870
 CYCLE:    65 TIME:   0.586 TIME LEFT:  2.00D  GRAD.:     0.059 HEAT:  94.31870
 CYCLE:    66 TIME:   0.629 TIME LEFT:  2.00D  GRAD.:     0.052 HEAT:  94.31869
 CYCLE:    67 TIME:   0.664 TIME LEFT:  2.00D  GRAD.:     0.193 HEAT:  94.31869
 CYCLE:    68 TIME:   0.672 TIME LEFT:  2.00D  GRAD.:     0.027 HEAT:  94.31869
 CYCLE:    69 TIME:   0.707 TIME LEFT:  2.00D  GRAD.:     0.020 HEAT:  94.31869
 CYCLE:    70 TIME:   0.516 TIME LEFT:  2.00D  GRAD.:     0.020 HEAT:  94.31869
 CYCLE:    71 TIME:   0.465 TIME LEFT:  2.00D  GRAD.:     0.060 HEAT:  94.31869
 CYCLE:    72 TIME:   0.609 TIME LEFT:  2.00D  GRAD.:     0.012 HEAT:  94.31869
 CYCLE:    73 TIME:   0.488 TIME LEFT:  2.00D  GRAD.:     0.008 HEAT:  94.31869

 -------------------------------------------------------------------------------
 gnorm=0.0 scfcrt=1.D-21 aux(precision=14 comp xp xs xw) PM6 SINGLET THREADS=1 external=params.dat charge=0 XYZ
 Comment line 1
 Comment line 2


     HERBERTS TEST WAS SATISFIED IN BFGS                      
     SCF FIELD WAS ACHIEVED                                   


                              PM6 CALCULATION
                                                       MOPAC v22.0.4 Linux
                                                       Thu Aug 29 17:01:16 2024




          FINAL HEAT OF FORMATION =         94.31869 KCAL/MOL =     394.62938 KJ/MOL


          COSMO AREA              =        394.05 SQUARE ANGSTROMS
          COSMO VOLUME            =        461.67 CUBIC ANGSTROMS

          GRADIENT NORM           =          0.00846          =       0.00125 PER ATOM
          IONIZATION POTENTIAL    =          6.012428 EV
          HOMO LUMO ENERGIES (EV) =         -6.012 -0.301
          NO. OF FILLED LEVELS    =         68
          MOLECULAR WEIGHT        =        376.4564         POINT GROUP:  Cs  

          MOLECULAR DIMENSIONS (Angstroms)

            Atom       Atom       Distance
            H    45    H    34    16.75691
            H    36    H    26     8.23618
            C    22    C    14     0.00000


          SCF CALCULATIONS        =         74

          WALL-CLOCK TIME         =     46.711 SECONDS
          COMPUTATION TIME        =     46.467 SECONDS




   ATOM   CHEMICAL          X               Y               Z
  NUMBER   SYMBOL      (ANGSTROMS)     (ANGSTROMS)     (ANGSTROMS)

     1       C         -3.26244451  *  -5.86922821  *  -0.00000000  *
     2       C         -2.74485702  *  -7.20225690  *  -0.00000000  *
     3       C         -1.25184838  *  -7.44707739  *   0.00000000  *
     4       C         -0.33559034  *  -6.34911532  *   0.00000000  *
     5       C         -0.84527048  *  -4.92043879  *  -0.00000000  *
     6       C          0.07782922  *  -3.78429155  *  -0.00000000  *
     7       C         -0.42947150  *  -2.39537793  *   0.00000000  *
     8       C         -1.90290280  *  -2.15603030  *  -0.00000000  *
     9       C         -2.42999972  *  -0.74811050  *   0.00000000  *
    10       C         -1.52671264  *   0.37894307  *   0.00000000  *
    11       C         -2.04866997  *   1.80982730  *   0.00000000  *
    12       C         -1.15346456  *   2.92504547  *   0.00000000  *
    13       C         -1.67033989  *   4.36802160  *  -0.00000000  *
    14       C         -0.78258944  *   5.47439216  *  -0.00000000  *
    15       C          0.73633163  *   5.27920294  *   0.00000000  *
    16       C          1.28088425  *   3.87346069  *  -0.00000000  *
    17       C          2.74838495  *   3.65408358  *  -0.00000000  *
    18       C          3.28670178  *   2.26688795  *   0.00000000  *
    19       C          2.38298125  *   1.12399773  *   0.00000000  *
    20       C          0.89806117  *   1.34052316  *   0.00000000  *
    21       C          0.35677782  *   2.70519958  *  -0.00000000  *
    22       C         -0.03177069  *   0.14648550  *   0.00000000  *
    23       C          0.50700799  *  -1.21014090  *   0.00000000  *
    24       C          2.01280495  *  -1.41295088  *  -0.00000000  *
    25       C          2.90863214  *  -0.30344311  *  -0.00000000  *
    26       H          3.99770770  *  -0.45191818  *  -0.00000000  *
    27       H          2.38684318  *  -2.44988340  *   0.00000000  *
    28       H          4.37497393  *   2.11438465  *  -0.00000000  *
    29       C          3.66570788  *   4.84500642  *   0.00000000  *
    30       H          4.75159655  *   4.67714381  *  -0.00000000  *
    31       C          3.12458695  *   6.18048293  *   0.00000000  *
    32       C          1.64414936  *   6.40448566  *   0.00000000  *
    33       H          1.26627234  *   7.43615597  *  -0.00000000  *
    34       H          3.78946311  *   7.05572501  *   0.00000000  *
    35       H         -1.15959101  *   6.50729462  *  -0.00000000  *
    36       H         -2.76035663  *   4.51323187  *   0.00000000  *
    37       H         -3.13828922  *   1.95507223  *   0.00000000  *
    38       H         -3.51852725  *  -0.59578149  *   0.00000000  *
    39       C         -2.83396225  *  -3.30617940  *  -0.00000000  *
    40       C         -2.32299978  *  -4.67805296  *   0.00000000  *
    41       H         -3.91784830  *  -3.12346955  *  -0.00000000  *
    42       H          1.16682907  *  -3.95457164  *  -0.00000000  *
    43       H          0.75090014  *  -6.51386630  *  -0.00000000  *
    44       H         -0.89616239  *  -8.48673224  *   0.00000000  *
    45       H         -3.41395564  *  -8.07387245  *  -0.00000000  *
    46       H         -4.34460994  *  -5.67813953  *  -0.00000000  *

                             CARTESIAN COORDINATES

   1    C       -3.262444510    -5.869228206    -0.000000000
   2    C       -2.744857020    -7.202256903    -0.000000000
   3    C       -1.251848381    -7.447077394     0.000000000
   4    C       -0.335590342    -6.349115324     0.000000000
   5    C       -0.845270484    -4.920438787    -0.000000000
   6    C        0.077829218    -3.784291549    -0.000000000
   7    C       -0.429471502    -2.395377935     0.000000000
   8    C       -1.902902796    -2.156030297    -0.000000000
   9    C       -2.429999717    -0.748110495     0.000000000
  10    C       -1.526712636     0.378943068     0.000000000
  11    C       -2.048669967     1.809827301     0.000000000
  12    C       -1.153464556     2.925045471     0.000000000
  13    C       -1.670339890     4.368021596    -0.000000000
  14    C       -0.782589437     5.474392163    -0.000000000
  15    C        0.736331632     5.279202941     0.000000000
  16    C        1.280884246     3.873460689    -0.000000000
  17    C        2.748384953     3.654083581    -0.000000000
  18    C        3.286701777     2.266887953     0.000000000
  19    C        2.382981253     1.123997725     0.000000000
  20    C        0.898061173     1.340523158     0.000000000
  21    C        0.356777820     2.705199583    -0.000000000
  22    C       -0.031770692     0.146485499     0.000000000
  23    C        0.507007992    -1.210140895     0.000000000
  24    C        2.012804945    -1.412950875    -0.000000000
  25    C        2.908632138    -0.303443110    -0.000000000
  26    H        3.997707696    -0.451918182    -0.000000000
  27    H        2.386843182    -2.449883399     0.000000000
  28    H        4.374973930     2.114384648    -0.000000000
  29    C        3.665707878     4.845006416     0.000000000
  30    H        4.751596552     4.677143814    -0.000000000
  31    C        3.124586949     6.180482934     0.000000000
  32    C        1.644149359     6.404485659     0.000000000
  33    H        1.266272335     7.436155969    -0.000000000
  34    H        3.789463107     7.055725012     0.000000000
  35    H       -1.159591006     6.507294623    -0.000000000
  36    H       -2.760356627     4.513231873     0.000000000
  37    H       -3.138289223     1.955072233     0.000000000
  38    H       -3.518527246    -0.595781485     0.000000000
  39    C       -2.833962250    -3.306179402    -0.000000000
  40    C       -2.322999781    -4.678052959     0.000000000
  41    H       -3.917848299    -3.123469551    -0.000000000
  42    H        1.166829066    -3.954571639    -0.000000000
  43    H        0.750900135    -6.513866300    -0.000000000
  44    H       -0.896162395    -8.486732237     0.000000000
  45    H       -3.413955639    -8.073872450    -0.000000000
  46    H       -4.344609937    -5.678139533    -0.000000000


           Empirical Formula: C30 H16  =    46 atoms



      MOLECULAR POINT GROUP   :   Cs  


                  EIGENVALUES  
 -48.65162 -46.46655 -43.99950 -41.82596 -40.65786 -38.01770 -37.07124 -35.36111
 -33.48770 -33.33333 -32.29909 -30.32254 -29.99646 -29.24797 -27.11125 -24.88545
 -23.50474 -22.73198 -22.37577 -22.24212 -21.64166 -21.10650 -20.65431 -18.75178
 -18.34553 -17.27631 -16.76875 -16.25988 -15.78395 -15.60107 -15.19788 -14.70508
 -14.44276 -14.12162 -13.98196 -13.33146 -13.07973 -12.88945 -12.75171 -12.71854
 -12.59193 -12.51739 -12.43701 -12.11346 -12.01654 -11.95689 -11.79672 -11.52824
 -11.37410 -11.23630 -11.21521 -10.78916 -10.67241 -10.54662 -10.42458 -10.24050
 -10.00258  -9.89376  -9.54121  -9.21841  -8.92464  -8.56043  -8.11077  -7.82041
  -7.60086  -7.14287  -6.90871  -6.01243  -0.30130   0.53353   0.71700   1.12778
   1.25830   1.52811   1.86318   2.13682   2.32570   2.52892   2.96982   3.21967
   3.51806   3.89673   3.96982   4.02684   4.15764   4.29435   4.35575   4.51358
   4.57592   4.68080   4.73133   4.83021   4.93570   4.95193   4.97288   5.02342
   5.07154   5.10120   5.13801   5.19864   5.22587   5.25408   5.29173   5.36635
   5.43060   5.44838   5.45440   5.50481   5.55392   5.62560   5.66987   5.73926
   5.76310   5.84885   5.93388   5.97901   6.01391   6.11967   6.15681   6.32420
   6.87226   7.10950   7.13342   7.15289   7.16074   7.16664   7.17623   7.18850
   7.21830   7.22216   7.24671   7.25226   7.26027   7.26903   7.31766   7.42781


              NET ATOMIC CHARGES AND DIPOLE CONTRIBUTIONS

  ATOM NO.   TYPE          CHARGE      No. of ELECS.   s-Pop       p-Pop       
    1          C          -0.078739        4.0787     1.20593     2.87281
    2          C          -0.066235        4.0662     1.20453     2.86171
    3          C          -0.066200        4.0662     1.20455     2.86165
    4          C          -0.078781        4.0788     1.20586     2.87292
    5          C           0.005583        3.9944     1.19660     2.79782
    6          C          -0.086179        4.0862     1.20739     2.87879
    7          C          -0.001361        4.0014     1.19731     2.80405
    8          C           0.004312        3.9957     1.19627     2.79941
    9          C          -0.085766        4.0858     1.20782     2.87795
   10          C           0.003995        3.9960     1.19642     2.79959
   11          C          -0.086222        4.0862     1.20814     2.87808
   12          C           0.008205        3.9918     1.19711     2.79469
   13          C          -0.076642        4.0766     1.20633     2.87031
   14          C          -0.072313        4.0723     1.20579     2.86652
   15          C           0.002491        3.9975     1.19724     2.80027
   16          C          -0.002395        4.0024     1.19728     2.80512
   17          C           0.002288        3.9977     1.19658     2.80114
   18          C          -0.084804        4.0848     1.20695     2.87785
   19          C           0.003835        3.9962     1.19654     2.79963
   20          C          -0.006207        4.0062     1.19781     2.80839
   21          C          -0.003299        4.0033     1.19774     2.80556
   22          C          -0.001278        4.0013     1.19762     2.80366
   23          C          -0.005378        4.0054     1.19924     2.80614
   24          C          -0.073041        4.0730     1.20587     2.86717
   25          C          -0.075700        4.0757     1.20577     2.86993
   26          H           0.075474        0.9245     0.92453
   27          H           0.077656        0.9223     0.92234
   28          H           0.079834        0.9202     0.92017
   29          C          -0.077337        4.0773     1.20562     2.87172
   30          H           0.075884        0.9241     0.92412
   31          C          -0.066243        4.0662     1.20382     2.86242
   32          C          -0.076278        4.0763     1.20594     2.87034
   33          H           0.076342        0.9237     0.92366
   34          H           0.072603        0.9274     0.92740
   35          H           0.074265        0.9257     0.92573
   36          H           0.074361        0.9256     0.92564
   37          H           0.078758        0.9212     0.92124
   38          H           0.079454        0.9205     0.92055
   39          C          -0.086962        4.0870     1.20731     2.87965
   40          C           0.006286        3.9937     1.19672     2.79699
   41          H           0.079464        0.9205     0.92054
   42          H           0.081736        0.9183     0.91826
   43          H           0.074993        0.9250     0.92501
   44          H           0.072167        0.9278     0.92783
   45          H           0.072184        0.9278     0.92782
   46          H           0.075190        0.9248     0.92481
 DIPOLE           X         Y         Z       TOTAL
 POINT-CHG.     0.053    -0.117    -0.000     0.128
 HYBRID        -0.017     0.017    -0.000     0.024
 SUM            0.036    -0.100    -0.000     0.106


          ATOMIC ORBITAL ELECTRON POPULATIONS

     Atom    s        px        py        pz   
    1  C   1.20593   0.95293   0.91495   1.00492
    2  C   1.20453   0.92440   0.94253   0.99478
    3  C   1.20455   0.91495   0.95200   0.99471
    4  C   1.20586   0.95653   0.91118   1.00522
    5  C   1.19660   0.90528   0.89856   0.99398
    6  C   1.20739   0.96236   0.91077   1.00565
    7  C   1.19731   0.90252   0.90122   1.00031
    8  C   1.19627   0.90511   0.89914   0.99517
    9  C   1.20782   0.96231   0.91110   1.00454
   10  C   1.19642   0.90387   0.89969   0.99603
   11  C   1.20814   0.96218   0.90910   1.00680
   12  C   1.19711   0.90050   0.89897   0.99521
   13  C   1.20633   0.95767   0.90980   1.00284
   14  C   1.20579   0.91211   0.95510   0.99932
   15  C   1.19724   0.89577   0.90554   0.99895
   16  C   1.19728   0.90189   0.90127   1.00195
   17  C   1.19658   0.90757   0.89911   0.99446
   18  C   1.20695   0.96186   0.91114   1.00486
   19  C   1.19654   0.90490   0.89944   0.99529
   20  C   1.19781   0.90053   0.90477   1.00309
   21  C   1.19774   0.89906   0.90523   1.00126
   22  C   1.19762   0.89703   0.90398   1.00265
   23  C   1.19924   0.89865   0.90605   1.00143
   24  C   1.20587   0.91123   0.95602   0.99992
   25  C   1.20577   0.95797   0.91070   1.00126
   26  H   0.92453
   27  H   0.92234
   28  H   0.92017
   29  C   1.20562   0.95494   0.91367   1.00310
   30  H   0.92412
   31  C   1.20382   0.92559   0.94241   0.99441
   32  C   1.20594   0.91615   0.95484   0.99934
   33  H   0.92366
   34  H   0.92740
   35  H   0.92573
   36  H   0.92564
   37  H   0.92124
   38  H   0.92055
   39  C   1.20731   0.96046   0.91389   1.00530
   40  C   1.19672   0.90385   0.89989   0.99326
   41  H   0.92054
   42  H   0.91826
   43  H   0.92501
   44  H   0.92783
   45  H   0.92782
   46  H   0.92481

 **********************
 *                    *
 * JOB ENDED NORMALLY *
 *                    *
 **********************



 TOTAL JOB TIME:            46.72 SECONDS

 == MOPAC DONE ==
