[Molden Format]                                                                 
[ATOMS] AU                                                                      
O        1    8       -0.0000000000        0.0000000000        0.1243564077     
H        2    1        0.0000000000       -1.4232661785       -0.9868132143     
H        3    1        0.0000000000        1.4232661785       -0.9868132143     
[Molden Format]                                                                 
[GTO]                                                                           
  1 0
s  10 1.00
   15330.0000000000       5.080000000000000E-004                                
   2299.00000000000       3.929000000000000E-003                                
   522.400000000000       2.024300000000000E-002                                
   147.300000000000       7.918100000000000E-002                                
   47.5500000000000       0.230687000000000                                     
   16.7600000000000       0.433118000000000                                     
   6.20700000000000       0.350260000000000                                     
   1.75200000000000       4.272800000000000E-002                                
  0.688200000000000      -8.154000000000000E-003                                
  0.238400000000000       2.381000000000000E-003                                
s  10 1.00
   15330.0000000000      -1.150000000000000E-004                                
   2299.00000000000      -8.950000000000000E-004                                
   522.400000000000      -4.636000000000000E-003                                
   147.300000000000      -1.872400000000000E-002                                
   47.5500000000000      -5.846300000000000E-002                                
   16.7600000000000      -0.136463000000000                                     
   6.20700000000000      -0.175740000000000                                     
   1.75200000000000       0.160934000000000                                     
  0.688200000000000       0.603418000000000                                     
  0.238400000000000       0.378765000000000                                     
s  10 1.00
   15330.0000000000       0.000000000000000E+000                                
   2299.00000000000       0.000000000000000E+000                                
   522.400000000000       0.000000000000000E+000                                
   147.300000000000       0.000000000000000E+000                                
   47.5500000000000       0.000000000000000E+000                                
   16.7600000000000       0.000000000000000E+000                                
   6.20700000000000       0.000000000000000E+000                                
   1.75200000000000        1.00000000000000                                     
  0.688200000000000       0.000000000000000E+000                                
  0.238400000000000       0.000000000000000E+000                                
s  10 1.00
   15330.0000000000       0.000000000000000E+000                                
   2299.00000000000       0.000000000000000E+000                                
   522.400000000000       0.000000000000000E+000                                
   147.300000000000       0.000000000000000E+000                                
   47.5500000000000       0.000000000000000E+000                                
   16.7600000000000       0.000000000000000E+000                                
   6.20700000000000       0.000000000000000E+000                                
   1.75200000000000       0.000000000000000E+000                                
  0.688200000000000       0.000000000000000E+000                                
  0.238400000000000        1.00000000000000                                     
p   5 1.00
   34.4600000000000       1.592800000000000E-002                                
   7.74900000000000       9.974000000000000E-002                                
   2.28000000000000       0.310492000000000                                     
  0.715600000000000       0.491026000000000                                     
  0.214000000000000       0.336337000000000                                     
p   5 1.00
   34.4600000000000       0.000000000000000E+000                                
   7.74900000000000       0.000000000000000E+000                                
   2.28000000000000       0.000000000000000E+000                                
  0.715600000000000        1.00000000000000                                     
  0.214000000000000       0.000000000000000E+000                                
p   5 1.00
   34.4600000000000       0.000000000000000E+000                                
   7.74900000000000       0.000000000000000E+000                                
   2.28000000000000       0.000000000000000E+000                                
  0.715600000000000       0.000000000000000E+000                                
  0.214000000000000        1.00000000000000                                     
d   2 1.00
   2.31400000000000        1.00000000000000                                     
  0.645000000000000       0.000000000000000E+000                                
d   2 1.00
   2.31400000000000       0.000000000000000E+000                                
  0.645000000000000        1.00000000000000                                     
f   1 1.00
   1.42800000000000        1.00000000000000                                     
 
  2 0
s   5 1.00
   33.8700000000000       6.068000000000000E-003                                
   5.09500000000000       4.530800000000000E-002                                
   1.15900000000000       0.202822000000000                                     
  0.325800000000000       0.503903000000000                                     
  0.102700000000000       0.383421000000000                                     
s   5 1.00
   33.8700000000000       0.000000000000000E+000                                
   5.09500000000000       0.000000000000000E+000                                
   1.15900000000000       0.000000000000000E+000                                
  0.325800000000000        1.00000000000000                                     
  0.102700000000000       0.000000000000000E+000                                
s   5 1.00
   33.8700000000000       0.000000000000000E+000                                
   5.09500000000000       0.000000000000000E+000                                
   1.15900000000000       0.000000000000000E+000                                
  0.325800000000000       0.000000000000000E+000                                
  0.102700000000000        1.00000000000000                                     
p   2 1.00
   1.40700000000000        1.00000000000000                                     
  0.388000000000000       0.000000000000000E+000                                
p   2 1.00
   1.40700000000000       0.000000000000000E+000                                
  0.388000000000000        1.00000000000000                                     
d   1 1.00
   1.05700000000000        1.00000000000000                                     
 
  3 0
s   5 1.00
   33.8700000000000       6.068000000000000E-003                                
   5.09500000000000       4.530800000000000E-002                                
   1.15900000000000       0.202822000000000                                     
  0.325800000000000       0.503903000000000                                     
  0.102700000000000       0.383421000000000                                     
s   5 1.00
   33.8700000000000       0.000000000000000E+000                                
   5.09500000000000       0.000000000000000E+000                                
   1.15900000000000       0.000000000000000E+000                                
  0.325800000000000        1.00000000000000                                     
  0.102700000000000       0.000000000000000E+000                                
s   5 1.00
   33.8700000000000       0.000000000000000E+000                                
   5.09500000000000       0.000000000000000E+000                                
   1.15900000000000       0.000000000000000E+000                                
  0.325800000000000       0.000000000000000E+000                                
  0.102700000000000        1.00000000000000                                     
p   2 1.00
   1.40700000000000        1.00000000000000                                     
  0.388000000000000       0.000000000000000E+000                                
p   2 1.00
   1.40700000000000       0.000000000000000E+000                                
  0.388000000000000        1.00000000000000                                     
d   1 1.00
   1.05700000000000        1.00000000000000                                     
 
                                                                                
[MO]
 Sym= A
 Ene=  -20.5546609532923     
 Spin= Alpha
 Occup= 1.0
  1        0.9993091953
  2       -0.0010102425
  3        0.0009784670
  4       -0.0007762659
  5        0.0000000000
  6        0.0000000000
  7       -0.0049050368
  8        0.0000000000
  9        0.0000000000
 10        0.0038889789
 11        0.0000000000
 12        0.0000000000
 13        0.0017961909
 14       -0.0000321251
 15        0.0000185531
 16        0.0000135720
 17        0.0000000000
 18        0.0000000000
 19        0.0000000000
 20        0.0002952521
 21       -0.0001932010
 22       -0.0001020511
 23        0.0000000000
 24        0.0000000000
 25        0.0000000000
 26        0.0000000000
 27        0.0000000000
 28       -0.0000010665
 29        0.0000000000
 30        0.0000000000
 31       -0.0000455417
 32        0.0000000000
 33        0.0000000000
 34        0.0000487412
 35        0.0000000000
 36        0.0021360195
 37       -0.0000894121
 38       -0.0010715032
 39        0.0000000000
 40        0.0002314055
 41        0.0001217944
 42        0.0000000000
 43        0.0004408758
 44        0.0002995286
 45        0.0000258457
 46        0.0000082683
 47       -0.0000341140
 48        0.0000000000
 49        0.0000000000
 50       -0.0001293868
 51        0.0021360195
 52       -0.0000894121
 53       -0.0010715032
 54        0.0000000000
 55       -0.0002314055
 56        0.0001217944
 57        0.0000000000
 58       -0.0004408758
 59        0.0002995286
 60        0.0000258457
 61        0.0000082683
 62       -0.0000341140
 63        0.0000000000
 64        0.0000000000
 65        0.0001293868
 Sym= A
 Ene=  -1.34692073961914     
 Spin= Alpha
 Occup= 1.0
  1        0.0088804909
  2       -0.8640024021
  3        0.0065934455
  4        0.0443857439
  5        0.0000000000
  6        0.0000000000
  7        0.1162972835
  8        0.0000000000
  9        0.0000000000
 10        0.0071616194
 11        0.0000000000
 12        0.0000000000
 13       -0.0266289174
 14        0.0022182793
 15       -0.0015986014
 16       -0.0006196779
 17        0.0000000000
 18        0.0000000000
 19        0.0000000000
 20        0.0046422087
 21       -0.0029182719
 22       -0.0017239368
 23        0.0000000000
 24        0.0000000000
 25        0.0000000000
 26        0.0000000000
 27        0.0000000000
 28       -0.0002177131
 29        0.0000000000
 30        0.0000000000
 31       -0.0010992554
 32        0.0000000000
 33        0.0000000000
 34        0.0017523947
 35        0.0000000000
 36       -0.3771095558
 37        0.1169582181
 38        0.1383964702
 39        0.0000000000
 40       -0.0105367426
 41       -0.0074986043
 42        0.0000000000
 43       -0.0098337168
 44       -0.0049723808
 45        0.0006831005
 46       -0.0007092485
 47        0.0000261480
 48        0.0000000000
 49        0.0000000000
 50       -0.0019792794
 51       -0.3771095558
 52        0.1169582181
 53        0.1383964702
 54        0.0000000000
 55        0.0105367426
 56       -0.0074986043
 57        0.0000000000
 58        0.0098337168
 59       -0.0049723808
 60        0.0006831005
 61       -0.0007092485
 62        0.0000261480
 63        0.0000000000
 64        0.0000000000
 65        0.0019792794
 Sym= A
 Ene= -0.709824416546705     
 Spin= Alpha
 Occup= 1.0
  1        0.0000000000
  2        0.0000000000
  3        0.0000000000
  4        0.0000000000
  5        0.0000000000
  6        0.7313144755
  7        0.0000000000
  8        0.0000000000
  9       -0.0191448862
 10        0.0000000000
 11        0.0000000000
 12       -0.0869426993
 13        0.0000000000
 14        0.0000000000
 15        0.0000000000
 16        0.0000000000
 17        0.0000000000
 18        0.0000000000
 19       -0.0131284716
 20        0.0000000000
 21        0.0000000000
 22        0.0000000000
 23        0.0000000000
 24        0.0000000000
 25       -0.0224000508
 26        0.0000000000
 27        0.0006375841
 28        0.0000000000
 29        0.0000000000
 30       -0.0020511625
 31        0.0000000000
 32        0.0000000000
 33        0.0001384103
 34        0.0000000000
 35        0.0000000000
 36       -0.5975070182
 37        0.0809517502
 38        0.1676639983
 39        0.0000000000
 40       -0.0094993333
 41       -0.0129755433
 42        0.0000000000
 43       -0.0195074367
 44       -0.0240486145
 45        0.0021734461
 46       -0.0009922698
 47       -0.0011811763
 48        0.0000000000
 49        0.0000000000
 50       -0.0058213546
 51        0.5975070182
 52       -0.0809517502
 53       -0.1676639983
 54        0.0000000000
 55       -0.0094993333
 56        0.0129755433
 57        0.0000000000
 58       -0.0195074367
 59        0.0240486145
 60       -0.0021734461
 61        0.0009922698
 62        0.0011811763
 63        0.0000000000
 64        0.0000000000
 65       -0.0058213546
 Sym= A
 Ene= -0.578986875682689     
 Spin= Alpha
 Occup= 1.0
  1        0.0023010577
  2        0.3088395134
  3        0.0039814134
  4        0.1621619202
  5        0.0000000000
  6        0.0000000000
  7        0.8083545787
  8        0.0000000000
  9        0.0000000000
 10       -0.0147646026
 11        0.0000000000
 12        0.0000000000
 13        0.0042784645
 14        0.0032422752
 15        0.0000020340
 16       -0.0032443092
 17        0.0000000000
 18        0.0000000000
 19        0.0000000000
 20        0.0081268931
 21        0.0024044188
 22       -0.0105313119
 23        0.0000000000
 24        0.0000000000
 25        0.0000000000
 26        0.0000000000
 27        0.0000000000
 28        0.0001901523
 29        0.0000000000
 30        0.0000000000
 31       -0.0018438622
 32        0.0000000000
 33        0.0000000000
 34        0.0012734052
 35        0.0000000000
 36       -0.3626151587
 37        0.0432463847
 38        0.1132862972
 39        0.0000000000
 40       -0.0096040848
 41        0.0006665584
 42        0.0000000000
 43       -0.0214960506
 44        0.0122281087
 45        0.0010152260
 46       -0.0022920335
 47        0.0012768075
 48        0.0000000000
 49        0.0000000000
 50       -0.0007609892
 51       -0.3626151587
 52        0.0432463847
 53        0.1132862972
 54        0.0000000000
 55        0.0096040848
 56        0.0006665584
 57        0.0000000000
 58        0.0214960506
 59        0.0122281087
 60        0.0010152260
 61       -0.0022920335
 62        0.0012768075
 63        0.0000000000
 64        0.0000000000
 65        0.0007609892
 Sym= A
 Ene= -0.504772669504609     
 Spin= Alpha
 Occup= 1.0
  1        0.0000000000
  2        0.0000000000
  3        0.0000000000
  4        0.0000000000
  5        0.9227008412
  6        0.0000000000
  7        0.0000000000
  8       -0.0088359574
  9        0.0000000000
 10        0.0000000000
 11        0.0651169604
 12        0.0000000000
 13        0.0000000000
 14        0.0000000000
 15        0.0000000000
 16        0.0000000000
 17        0.0000000000
 18       -0.0052545352
 19        0.0000000000
 20        0.0000000000
 21        0.0000000000
 22        0.0000000000
 23        0.0000000000
 24       -0.0181093046
 25        0.0000000000
 26       -0.0010687837
 27        0.0000000000
 28        0.0000000000
 29        0.0021969706
 30        0.0000000000
 31        0.0000000000
 32        0.0010093805
 33        0.0000000000
 34        0.0000000000
 35        0.0000000000
 36        0.0000000000
 37        0.0000000000
 38        0.0000000000
 39        0.0101234851
 40        0.0000000000
 41        0.0000000000
 42        0.0312857013
 43        0.0000000000
 44        0.0000000000
 45        0.0000000000
 46        0.0000000000
 47        0.0000000000
 48        0.0041507997
 49        0.0028836526
 50        0.0000000000
 51        0.0000000000
 52        0.0000000000
 53        0.0000000000
 54        0.0101234851
 55        0.0000000000
 56        0.0000000000
 57        0.0312857013
 58        0.0000000000
 59        0.0000000000
 60        0.0000000000
 61        0.0000000000
 62        0.0000000000
 63       -0.0041507997
 64        0.0028836526
 65        0.0000000000
 Sym= A
 Ene=  0.142355888035756     
 Spin= Alpha
 Occup= 0.0
  1        0.0301374918
  2       -0.1779728255
  3       -0.0114092851
  4       -1.4900711238
  5        0.0000000000
  6        0.0000000000
  7        0.2034733460
  8        0.0000000000
  9        0.0000000000
 10        0.0944832702
 11        0.0000000000
 12        0.0000000000
 13        0.3942192854
 14       -0.0008920114
 15        0.0014722886
 16       -0.0005802772
 17        0.0000000000
 18        0.0000000000
 19        0.0000000000
 20        0.0283739588
 21       -0.0231405660
 22       -0.0052333927
 23        0.0000000000
 24        0.0000000000
 25        0.0000000000
 26        0.0000000000
 27        0.0000000000
 28       -0.0010890182
 29        0.0000000000
 30        0.0000000000
 31       -0.0026422691
 32        0.0000000000
 33        0.0000000000
 34        0.0059093236
 35        0.0000000000
 36        0.1129699961
 37        0.2285346419
 38        0.8787948892
 39        0.0000000000
 40       -0.0056841961
 41       -0.0015267847
 42        0.0000000000
 43        0.1444415010
 44        0.1118801136
 45       -0.0052978812
 46        0.0029418559
 47        0.0023560253
 48        0.0000000000
 49        0.0000000000
 50        0.0176076899
 51        0.1129699961
 52        0.2285346419
 53        0.8787948892
 54        0.0000000000
 55        0.0056841961
 56       -0.0015267847
 57        0.0000000000
 58       -0.1444415010
 59        0.1118801136
 60       -0.0052978812
 61        0.0029418559
 62        0.0023560253
 63        0.0000000000
 64        0.0000000000
 65       -0.0176076899
 Sym= A
 Ene=  0.204306037233548     
 Spin= Alpha
 Occup= 0.0
  1        0.0000000000
  2        0.0000000000
  3        0.0000000000
  4        0.0000000000
  5        0.0000000000
  6        0.3501180507
  7        0.0000000000
  8        0.0000000000
  9        0.0298218577
 10        0.0000000000
 11        0.0000000000
 12        0.7221438697
 13        0.0000000000
 14        0.0000000000
 15        0.0000000000
 16        0.0000000000
 17        0.0000000000
 18        0.0000000000
 19        0.0028888454
 20        0.0000000000
 21        0.0000000000
 22        0.0000000000
 23        0.0000000000
 24        0.0000000000
 25       -0.0598146670
 26        0.0000000000
 27        0.0004182121
 28        0.0000000000
 29        0.0000000000
 30       -0.0017905607
 31        0.0000000000
 32        0.0000000000
 33        0.0005359243
 34        0.0000000000
 35        0.0000000000
 36        0.0708948349
 37        0.1030662121
 38        1.7467671686
 39        0.0000000000
 40       -0.0119338201
 41       -0.0107968106
 42        0.0000000000
 43        0.1348864992
 44        0.1090193843
 45       -0.0043250997
 46        0.0046842545
 47       -0.0003591549
 48        0.0000000000
 49        0.0000000000
 50        0.0093991274
 51       -0.0708948349
 52       -0.1030662121
 53       -1.7467671686
 54        0.0000000000
 55       -0.0119338201
 56        0.0107968106
 57        0.0000000000
 58        0.1348864992
 59       -0.1090193843
 60        0.0043250997
 61       -0.0046842545
 62        0.0003591549
 63        0.0000000000
 64        0.0000000000
 65        0.0093991274
 Sym= A
 Ene=  0.544132947122566     
 Spin= Alpha
 Occup= 0.0
  1        0.0000000000
  2        0.0000000000
  3        0.0000000000
  4        0.0000000000
  5        0.0000000000
  6        0.2705594280
  7        0.0000000000
  8        0.0000000000
  9        0.1495357542
 10        0.0000000000
 11        0.0000000000
 12        1.1771325284
 13        0.0000000000
 14        0.0000000000
 15        0.0000000000
 16        0.0000000000
 17        0.0000000000
 18        0.0000000000
 19        0.0273195180
 20        0.0000000000
 21        0.0000000000
 22        0.0000000000
 23        0.0000000000
 24        0.0000000000
 25       -0.1443152144
 26        0.0000000000
 27        0.0007899987
 28        0.0000000000
 29        0.0000000000
 30       -0.0121780762
 31        0.0000000000
 32        0.0000000000
 33        0.0098080802
 34        0.0000000000
 35        0.0000000000
 36        0.4168825130
 37        1.3580019137
 38       -0.7413036425
 39        0.0000000000
 40        0.0483385155
 41        0.0307509361
 42        0.0000000000
 43        0.0481985173
 44       -0.0182965597
 45       -0.0062654518
 46        0.0089945779
 47       -0.0027291261
 48        0.0000000000
 49        0.0000000000
 50        0.0303003303
 51       -0.4168825130
 52       -1.3580019137
 53        0.7413036425
 54        0.0000000000
 55        0.0483385155
 56       -0.0307509361
 57        0.0000000000
 58        0.0481985173
 59        0.0182965597
 60        0.0062654518
 61       -0.0089945779
 62        0.0027291261
 63        0.0000000000
 64        0.0000000000
 65        0.0303003303
 Sym= A
 Ene=  0.605027622211190     
 Spin= Alpha
 Occup= 0.0
  1        0.0251491986
  2        0.3476528170
  3       -0.0292301601
  4        0.7016094465
  5        0.0000000000
  6        0.0000000000
  7       -0.2343918095
  8        0.0000000000
  9        0.0000000000
 10       -0.0456792720
 11        0.0000000000
 12        0.0000000000
 13       -0.6457271610
 14        0.0084537981
 15       -0.0117486082
 16        0.0032948101
 17        0.0000000000
 18        0.0000000000
 19        0.0000000000
 20       -0.0185319340
 21        0.0234569477
 22       -0.0049250137
 23        0.0000000000
 24        0.0000000000
 25        0.0000000000
 26        0.0000000000
 27        0.0000000000
 28        0.0025175904
 29        0.0000000000
 30        0.0000000000
 31        0.0051849598
 32        0.0000000000
 33        0.0000000000
 34       -0.0127377309
 35        0.0000000000
 36       -0.3365604759
 37       -1.3145604416
 38        0.7020190874
 39        0.0000000000
 40       -0.0320215349
 41       -0.0183139336
 42        0.0000000000
 43        0.1883614955
 44       -0.0740552713
 45        0.0086918985
 46       -0.0011937527
 47       -0.0074981458
 48        0.0000000000
 49        0.0000000000
 50       -0.0110423774
 51       -0.3365604759
 52       -1.3145604416
 53        0.7020190874
 54        0.0000000000
 55        0.0320215349
 56       -0.0183139336
 57        0.0000000000
 58       -0.1883614955
 59       -0.0740552713
 60        0.0086918985
 61       -0.0011937527
 62       -0.0074981458
 63        0.0000000000
 64        0.0000000000
 65        0.0110423774
 Sym= A
 Ene=  0.667579103448414     
 Spin= Alpha
 Occup= 0.0
  1        0.0364878803
  2        0.1271754499
  3       -0.0625930800
  4        4.5917068931
  5        0.0000000000
  6        0.0000000000
  7        0.6396492386
  8        0.0000000000
  9        0.0000000000
 10       -0.2111594309
 11        0.0000000000
 12        0.0000000000
 13       -2.8902132018
 14        0.0158414030
 15       -0.0062989029
 16       -0.0095425000
 17        0.0000000000
 18        0.0000000000
 19        0.0000000000
 20       -0.1644325348
 21        0.1127731505
 22        0.0516593843
 23        0.0000000000
 24        0.0000000000
 25        0.0000000000
 26        0.0000000000
 27        0.0000000000
 28        0.0027662170
 29        0.0000000000
 30        0.0000000000
 31        0.0111664851
 32        0.0000000000
 33        0.0000000000
 34       -0.0194651362
 35        0.0000000000
 36        0.1421732547
 37       -2.3660593226
 38       -0.5327921842
 39        0.0000000000
 40       -0.0233778842
 41       -0.0136092345
 42        0.0000000000
 43       -0.9523506624
 44       -0.6141469030
 45        0.0245311088
 46       -0.0264645650
 47        0.0019334562
 48        0.0000000000
 49        0.0000000000
 50       -0.0636694064
 51        0.1421732547
 52       -2.3660593226
 53       -0.5327921842
 54        0.0000000000
 55        0.0233778842
 56       -0.0136092345
 57        0.0000000000
 58        0.9523506624
 59       -0.6141469030
 60        0.0245311088
 61       -0.0264645650
 62        0.0019334562
 63        0.0000000000
 64        0.0000000000
 65        0.0636694064
 Sym= A
 Ene=  0.787303082709606     
 Spin= Alpha
 Occup= 0.0
  1        0.0000000000
  2        0.0000000000
  3        0.0000000000
  4        0.0000000000
  5        0.6678871330
  6        0.0000000000
  7        0.0000000000
  8        0.4442393330
  9        0.0000000000
 10        0.0000000000
 11       -1.4048997350
 12        0.0000000000
 13        0.0000000000
 14        0.0000000000
 15        0.0000000000
 16        0.0000000000
 17        0.0000000000
 18       -0.0089209022
 19        0.0000000000
 20        0.0000000000
 21        0.0000000000
 22        0.0000000000
 23        0.0000000000
 24        0.0369091345
 25        0.0000000000
 26        0.0018430343
 27        0.0000000000
 28        0.0000000000
 29       -0.0036426714
 30        0.0000000000
 31        0.0000000000
 32       -0.0018864316
 33        0.0000000000
 34        0.0000000000
 35        0.0000000000
 36        0.0000000000
 37        0.0000000000
 38        0.0000000000
 39        0.0122198254
 40        0.0000000000
 41        0.0000000000
 42       -0.0042173017
 43        0.0000000000
 44        0.0000000000
 45        0.0000000000
 46        0.0000000000
 47        0.0000000000
 48        0.0197526565
 49        0.0140466233
 50        0.0000000000
 51        0.0000000000
 52        0.0000000000
 53        0.0000000000
 54        0.0122198254
 55        0.0000000000
 56        0.0000000000
 57       -0.0042173017
 58        0.0000000000
 59        0.0000000000
 60        0.0000000000
 61        0.0000000000
 62        0.0000000000
 63       -0.0197526565
 64        0.0140466233
 65        0.0000000000
 Sym= A
 Ene=  0.798739748862800     
 Spin= Alpha
 Occup= 0.0
  1        0.0167048640
  2        0.2043656941
  3       -0.0130913716
  4        0.5261274136
  5        0.0000000000
  6        0.0000000000
  7       -0.1430677182
  8        0.0000000000
  9        0.0000000000
 10       -0.0806786912
 11        0.0000000000
 12        0.0000000000
 13       -1.2520752529
 14        0.0057748173
 15        0.0154400771
 16       -0.0212148945
 17        0.0000000000
 18        0.0000000000
 19        0.0000000000
 20       -0.0054668913
 21       -0.0775874151
 22        0.0830543064
 23        0.0000000000
 24        0.0000000000
 25        0.0000000000
 26        0.0000000000
 27        0.0000000000
 28       -0.0042879368
 29        0.0000000000
 30        0.0000000000
 31        0.0072992146
 32        0.0000000000
 33        0.0000000000
 34        0.0055645958
 35        0.0000000000
 36        0.0375801267
 37       -0.9386847687
 38        0.2446631224
 39        0.0000000000
 40        0.0214481804
 41       -0.0370945978
 42        0.0000000000
 43       -0.5222161055
 44        0.6947087539
 45        0.0025661347
 46       -0.0278691776
 47        0.0253030428
 48        0.0000000000
 49        0.0000000000
 50        0.0257521382
 51        0.0375801267
 52       -0.9386847687
 53        0.2446631224
 54        0.0000000000
 55       -0.0214481804
 56       -0.0370945978
 57        0.0000000000
 58        0.5222161055
 59        0.6947087539
 60        0.0025661347
 61       -0.0278691776
 62        0.0253030428
 63        0.0000000000
 64        0.0000000000
 65       -0.0257521382
 Sym= A
 Ene=  0.805557712570193     
 Spin= Alpha
 Occup= 0.0
  1        0.0000000000
  2        0.0000000000
  3        0.0000000000
  4        0.0000000000
  5        0.0000000000
  6        0.7162698175
  7        0.0000000000
  8        0.0000000000
  9       -0.3786250201
 10        0.0000000000
 11        0.0000000000
 12       -3.2093192398
 13        0.0000000000
 14        0.0000000000
 15        0.0000000000
 16        0.0000000000
 17        0.0000000000
 18        0.0000000000
 19       -0.0249181774
 20        0.0000000000
 21        0.0000000000
 22        0.0000000000
 23        0.0000000000
 24        0.0000000000
 25        0.4580737886
 26        0.0000000000
 27       -0.0000132765
 28        0.0000000000
 29        0.0000000000
 30        0.0169677417
 31        0.0000000000
 32        0.0000000000
 33       -0.0169279123
 34        0.0000000000
 35        0.0000000000
 36        0.1228926778
 37       -1.7232420320
 38       -1.5295353201
 39        0.0000000000
 40       -0.0428405345
 41       -0.0339550120
 42        0.0000000000
 43       -0.9277523236
 44       -0.7638501875
 45        0.0310735609
 46       -0.0299362255
 47       -0.0011373353
 48        0.0000000000
 49        0.0000000000
 50       -0.0915206276
 51       -0.1228926778
 52        1.7232420320
 53        1.5295353201
 54        0.0000000000
 55       -0.0428405345
 56        0.0339550120
 57        0.0000000000
 58       -0.9277523236
 59        0.7638501875
 60       -0.0310735609