 --invoking executable--
/ddn/home8/r2610/cfour_v2.1_intel_2017_eland2/bin/xjoda


   *************************************************************************
         <<<     CCCCCC     CCCCCC   |||     CCCCCC     CCCCCC   >>>
       <<<      CCC        CCC       |||    CCC        CCC         >>>
      <<<      CCC        CCC        |||   CCC        CCC            >>>
    <<<        CCC        CCC        |||   CCC        CCC              >>>
      <<<      CCC        CCC        |||   CCC        CCC            >>>
       <<<      CCC        CCC       |||    CCC        CCC         >>>
         <<<     CCCCCC     CCCCCC   |||     CCCCCC     CCCCCC   >>>
   *************************************************************************

     ****************************************************************
     * CFOUR Coupled-Cluster techniques for Computational Chemistry *
     ****************************************************************
 

   Department of Chemistry                Institut fuer Physikalische Chemie
   University of Florida                  Universitaet Mainz
   Gainesville, FL 32611, USA             D-55099 Mainz, Germany

   Department of Chemistry                Fakultaet fuer Chemie und Biowiss.
   Johns Hopkins University               Karlsruher Institut fuer Technologie
   Baltimore, MD 21218, USA               D-76131 Karlsruhe, Germany

   Department of Chemistry                Department of Physical Chemistry
   Southern Methodist University          Eotvos Lorand University
   Dallas, TX 75275, USA                  H-1053 Budapest, Hungary

 
                       Version 2.1
 
                     cn030                                             
                     Wed Nov 29 14:06:43 CST 2023                      
                     integer*8 version is running
 
********************************************************************************
*                          Input from ZMAT file                                *
********************************************************************************
input of non-standard basis sets                                                
O                                                                               
H 1 OH*                                                                         
H 1 OH* 2 HOH*                                                                  
                                                                                
OH=                  1.09391392                                                 
HOH=                  109.45                                                    
                                                                                
*CFOUR(CALC=CCSD,BASIS=PVTZ,MEMORY_SIZE=8,MEM_UNIT=GB,REF=RHF,MULT=1)           
********************************************************************************
    -------------------------------------------------------------------
                    CFOUR Control Parameters 
    -------------------------------------------------------------------
        External           Internal           Value            Units
          Name               Name
    -------------------------------------------------------------------
       ABCDTYPE             IABCDT         STANDARD    [  0]    ***   
       ANHARMONIC           IANHAR         OFF         [  0]    ***   
       ANH_ALGORIT          IANALG         STANDARD    [  0]    ***   
       ANH_DERIVAT          IANDER         SECOND      [  1]    ***   
       ANH_MODE             ANHMOD         VIBRATION   [  0]    ***   
       ANH_STEPSIZ          ICUBST             50000          x 10-6  
       ANH_SYMMETR          IANHSM         ABELIAN     [  0]    ***   
       AO_LADDERS           IAOLAD         SINGLEPASS  [  1]    ***   
       AV_SCF               IAVSCF         OFF         [  0]    ***   
       BASIS                IBASIS         PVTZ        [ 14]    ***   
       BOTHVECTORS          BOTHVC         OFF         [  0]    ***   
       BOX_POTENT           IPIAB          OFF         [  0]    ***   
       BREIT                IBREIT         OFF         [  0]    ***   
       BRUCK_CONV           IBRTOL          10D-  4             ***   
       BRUECKNER            IBRKNR         OFF         [  0]    ***   
       BUFFERSIZE           IBUFFS              4096            ***   
       CACHE_RECS           ICHREC             10               ***   
       CALCLEVEL            ICLLVL         CCSD        [ 10]    ***   
       CCORBOPT             ICCORB         OFF         [  0]  x 0.01  
       CC_CONV              ICCCNV          10D-  7             ***   
       CC_EXPORDER          ICCEOR              5               ***   
       CC_EXTRAPOL          ICCEXT         DIIS        [  1]    ***   
       CC_GUESS             ICCGES         MP2         [  0]    ***   
       CC_MAXCYC            ICCCYC            100              cycles 
       CC_PROGRAM           ICCPRO         VCC         [  0]    ***   
       CHARGE               ICHRGE              0               ***   
       CHOLESKY             ICHOLE         OFF         [  0]    ***   
       CIS_CONV             ICISTL              5               ***   
       COMM_SIZE            IPSIZE            ***               ***   
       CONSTANT             ICONST         OLD         [  1]    ***   
       CONTINUUM            ICONTU         NONE        [  0]    ***   
       CONTRACTION          ICNTYP         GENERAL     [  1]    ***   
       COORDINATES          ICOORD         INTERNAL    [  0]    ***   
       CPHF_CONVER          ICPHFT          10D- 16             ***   
       CPHF_MAXCYC          ICPHFC             64              cycles 
       CUBIC                ICUBIC         OFF         [  0]    ***   
       CURVILINEAR          ICURVY         OFF         [  0]    ***   
       DBOC                 IDBOC          OFF         [  0]    ***   
       DCT                  IDCT           OFF         [  0]    ***   
       DERIV_LEV            IDRLVL         FIRST       [  1]    ***   
       DEVMEM_SIZE          IDVMEM         *********           MByte  
       DIAG_MRCC            IEOMST          10D-  0             ***   
       DIFF_TYPE            IDIFTY         RELAXED     [  0]    ***   
       DIRECT               IDIRCT         OFF         [  0]    ***   
       DROPMO               IDRPMO      NONE         
       ECP                  IECP           OFF         [  0]    ***   
       EIGENVECTOR          IVEC                1               ***   
       EL_ANHARM            IELANH         OFF         [  0]    ***   
       EOMFOLLOW            IEOMSR         ENERGY      [  0]    ***   
       EOMIP                IEOMIP         OFF         [  0]    ***   
       EOMLEVEL             HBARFM         SAME        [  0]    ***   
       EOM_MRCC             IMRCCE         NEW         [  1]    ***   
       EOM_NONIT            EOMNON         OFF         [  0]    ***   
       EOM_NSING            IEOMSI          10D-  0             ***   
       EOM_NSTATES          IMRCCD         DAVIDSON    [  0]    ***   
       EOM_NTRIP            IEOMTR          10D-  0             ***   
       EOM_ORDER            IEXORD         ENERGY      [  0]    ***   
       EOM_PROPSTA          IEOMST              0               ***   
       ESTATE_CONV          IEXTOL          10D-  5             ***   
       ESTATE_DIAG          IEXDIG         ITERATIVE   [  0]    ***   
       ESTATE_LOCK          IESLOC         ON          [  1]    ***   
       ESTATE_MAXC          IEXMXC             40               ***   
       ESTATE_PROP          IEXPRP         OFF         [  0]    ***   
       EVAL_HESS            IRECAL              0            # of cyc.
       EXCITATION           IEXCIT              0               ***   
       EXCITE               IEXCIT         NONE        [  0]    ***   
       EXTERN_POT           IEXPOT         OFF         [  0]    ***   
       FCGRADNEW            IFCGNW         OFF         [  0]    ***   
       FC_FIELD             IFINFC              0             x 10-6  
       FD_CALTYPE           IFDCAL         GRADONLY    [  0]    ***   
       FD_PROJECT           IFDPRJ         OFF         [  1]    ***   
       FD_STEPSIZE          IDISFD              0            10-4 bohr
       FD_USEGROUP          IFDGRP         FULL        [  0]    ***   
       FILE_RECSIZ          IFLREC              4096           words  
       FINITE_PERT          IFIPER              0             x 10-6  
       FIXGEOM              IFIXGM         OFF         [  0]    ***   
       FOCK                 IFOCK          AO          [  1]    ***   
       FREQ_ALGORI          IVIALG         STANDARD    [  0]    ***   
       FROZEN_CORE          IFROCO         OFF         [  0]    ***   
       GAMMA_ABCD           IGABCD         STORE       [  0]    ***   
       GAMMA_ABCI           IGABCI         STORE       [  0]    ***   
       GENBAS_1             IGNBS1              0               ***   
       GENBAS_2             IGNBS2              0               ***   
       GENBAS_3             IGNBS3              0               ***   
       GENBAS_4             IGNBS4              0               ***   
       GEO_CONV             ICONTL              5              H/bohr 
       GEO_MAXCYC           IOPTCY             50               ***   
       GEO_MAXSTEP          IMXSTP            300            millibohr
       GEO_METHOD           INR            NR          [  0]    ***   
       GIAO                 IGIAO          OFF         [  1]    ***   
       GIMIC                IGIMIC         OFF         [  0]    ***   
       GRID                 IGRID          OFF         [  0]    ***   
       GRID_ALGO            IGALGO         SERIAL      [  0]    ***   
       GUESS                IGUESS         MOREAD      [  0]    ***   
       HBAR                 IHBAR          OFF         [  0]    ***   
       HESS_TYPE            IHESTP         SCF         [  0]    ***   
       HF2_FILE             IHF2Fl         USE         [  1]    ***   
       HFSTABILITY          ISTABL         OFF         [  0]    ***   
       INCORE               INCORE         OFF         [  0]    ***   
       INPUT_MRCC           IMRCC          ON          [  1]    ***   
       INTEGRALS            INTTYP         VMOL        [  1]    ***   
       JODA_PRINT           IJPRNT              0               ***   
       KEYWORD_OUT          IDMPKW         NO          [  0]    ***   
       LINDEP_TOL           ILINDP              8               ***   
       LINEQ_CONV           IZTACN          10D-  7           cycles  
       LINEQ_EXPOR          ILMAXD              5               ***   
       LINEQ_MAXCY          ILMAXC            100               ***   
       LINEQ_TYPE           ILTYPE         DIIS        [  1]    ***   
       LOCK_ORBOCC          ILOCOC         OFF         [  0]    ***   
       MEMORY_SIZE          IMEMSZ         *********           words  
       MEM_UNIT             IMEMU          GB          [  3]    ***   
       MRCC                 IMRCCC         OFF         [  0]    ***   
       MULTIPLICTY          IMULTP              1               ***   
       NACOUPLING           IVCOUP         OFF         [  0]    ***   
       NEGEVAL              IDIE           ABORT       [  0]    ***   
       NEWNORM              INEWNO         OFF         [  0]    ***   
       NON-HF               INONHF         OFF         [  0]    ***   
       NTOP_TAMP            ITOPT2             15               ***   
       NUC_MODEL            INUCMO         POINT       [  0]    ***   
       OCCUPATION           IOCCU   ESTIMATED BY SCF 
       OPEN-SHELL           IOPEN          SPIN-ORBITAL[  0]    ***   
       OPTVIB               IOPTVB         OFF         [  0]    ***   
       ORBITALS             IORBTP         STANDARD    [  0]    ***   
       PARALLEL             IPARAL         ON          [  1]    ***   
       PARA_INT             IPINTS         ON          [  1]    ***   
       PARA_PRINT           IPPRIN              0               ***   
       PERT_ORB             IPTORB         STANDARD    [  0]    ***   
       POINTS               IGRDFD              0               ***   
       PRINT                IPRNT               0               ***   
       PROPS                IPROPS         OFF         [  0]    ***   
       PROP_INTEGR          IINTYP         INTERNAL    [  0]    ***   
       PSI                  IPSI           OFF         [  0]    ***   
       QC_ALG               IQCALG         FLM         [  0]    ***   
       QC_LINALG            IQCLIN         TRIDIAG     [  2]    ***   
       QC_MAXCYC            IQCMAX          10D-100           cycles  
       QC_MAXSCFCY          IQCMSC          10D- 15           cycles  
       QC_RTRUST            IQCRTR          10D-  0           x 10-3  
       QC_SKIPSCF           IQCSKI         OFF         [  0]    ***   
       QC_START             IQCSTA          10D-  1             ***   
       QRHFGUESS            IQGUES         OFF         [  0]    ***   
       QUARTIC              IQUART         OFF         [  0]    ***   
       RAMAN_INT            IRAMIN         OFF         [  0]    ***   
       RAMAN_ORB            IRAMRE         UNRELAXED   [  0]    ***   
       RDO                  IRDOFM         ON          [  1]    ***   
       REDUCE_REPR          REDREP         Ir          [  0]    ***   
       REFERENCE            IREFNC         RHF         [  0]    ***   
       RELATIVIST           IRELAT         OFF         [  0]    ***   
       RELAX_DENS           IRDENS         ON          [  1]    ***   
       RESET_FLAGS          IRESET         OFF         [  0]    ***   
       RESTART_CC           ICCRES         OFF         [  0]    ***   
       ROT_EVEC             ROTVEC              0               ***   
       SAVE_INTS            ISVINT         OFF         [  0]    ***   
       SCALE_ON             ISTCRT              0               ***   
       SCF_CONV             ISCFCV          10D-  7             ***   
       SCF_DAMPING          IDAMP               0             x 10-3  
       SCF_EXPORDE          IRPPOR              6               ***   
       SCF_EXPSTAR          IRPPLS              8               ***   
       SCF_EXTRAPO          IRPP           ON          [  1]    ***   
       SCF_MAXCYC           ISCFCY            150              cycles 
       SCF_NOSTOP           ISCFST         OFF         [  0]    ***   
       SCF_PRINT            ISCFPR              0               ***   
       SCF_PROG             ISCFPR         SCF         [  0]    ***   
       SD_FIELD             IFINSD              0             x 10-6  
       SOPERT               IPERSO         OFF         [  0]    ***   
       SPHERICAL            IDFGHI         ON          [  1]    ***   
       SPINORBIT            ISOCAL         OFF         [  0]    ***   
       SPINROTATIO          ISRCON         OFF         [  0]    ***   
       SPIN_FLIP            ISPFLP         OFF         [  0]    ***   
       SPIN_ORBIT           ISPORB         OFF         [  0]    ***   
       SPIN_SCAL            ISCSMP         OFF         [  0]    ***   
       STEEPSCALE           ISTPSC              1000          x 10-3  
       SUBGROUP             ISUBGP         DEFAULT     [  0]    ***   
       SUBGRPAXIS           ISBXYZ         X           [  0]    ***   
       SYMMETRY             ISYM           ON          [  0]    ***   
       SYM_CHECK            ISYMCK         OVERRIDE    [  1]    ***   
       T3_EXTRAPOL          IT3EXT         OFF         [  0]    ***   
       T4_EXTRAPOL          IT4EXP         OFF         [  0]    ***   
       TAMP_SUM             IEVERY              5               ***   
       TESTSUITE            ITESTS         OFF         [  0]    ***   
       THERMOCH             ITHERM         OFF         [  0]    ***   
       TOL_CHOLESK          ITOLCH          10D-  4             ***   
       TRANGRAD             IRESRM         OFF         [  0]    ***   
       TRANS_INV            ITRAIN         USE         [  0]    ***   
       TREAT_PERT           ITREAT         SIMULTANEOUS[  0]    ***   
       TRIP_ALGORI          ITRALG         NORMAL      [  0]    ***   
       UIJ_THRESHO          IUIJTH              1               ***   
       UNITS                IUNITS         ANGSTROM    [  0]    ***   
       UNOS                 IUNOS          OFF         [  0]    ***   
       UPDATE_HESS          IHUPDT         ON          [  1]    ***   
       VIBPHASE             ISETPH         STANDARD    [  0]    ***   
       VIBRATION            IVIB           NO          [  0]    ***   
       VIB_ALGORIT          IGEALG         STANDARD    [  0]    ***   
       VNATORB              IVNORB         OFF         [  0]    ***   
       VTRAN                IVTRAN         FULL/PARTIAL[  0]    ***   
       XFIELD               IXEFLD              0             x 10-6  
       XFORM_TOL            IXFTOL          10D- 11             ***   
       YFIELD               IYEFLD              0             x 10-6  
       ZFIELD               IZEFLD              0             x 10-6  
       ZSCALE_EXP           IZEXPS         OFF         [  0]    ***   
    -------------------------------------------------------------------
   3 entries found in Z-matrix 
   Job Title : input of non-standard basis sets                                                
   There are  2 unique internal coordinates.
   Of these,  2 will be optimized.
   User supplied Z-matrix: 
--------------------------------------------------------------------------------
       SYMBOL    BOND      LENGTH    ANGLE     ANGLE     DIHED     ANGLE
                  TO      (ANGST)    WRT      (DEG)      WRT      (DEG)
--------------------------------------------------------------------------------
        O    
        H          1         OH   
        H          1         OH         2        HOH  
                  *Initial values for internal coordinates* 
                      Name             Value
                        OH              1.0939139200
                        HOH           109.4500000000
--------------------------------------------------------------------------------
   Rotational constants (in cm-1): 
          7.2599762499            10.4862483476            23.5968671112
   Rotational constants (in MHz): 
     217648.6429900936        314369.8607755446        707416.3783437610
********************************************************************************
   The full molecular point group is C2v .
   The largest Abelian subgroup of the full molecular point group is C2v .
   The computational point group is C2v .
********************************************************************************
--------------------------------------------------------------------------------
   Analysis of internal coordinates specified by Z-matrix 
--------------------------------------------------------------------------------
   *The nuclear repulsion energy is    8.036216884520144 a.u.
   *There are   2 degrees of freedom within the tot. symm. molecular subspace.
   *Z-matrix requests optimization of   2 coordinates.
   *The optimization is unconstrained and your Z-matrix is great.
--------------------------------------------------------------------------------


 ----------------------------------------------------------------
         Coordinates used in calculation (QCOMP) 
 ----------------------------------------------------------------
 Z-matrix   Atomic            Coordinates (in bohr)
  Symbol    Number           X              Y              Z
 ----------------------------------------------------------------
     O         8         0.00000000     0.00000000     0.13360509
     H         1         0.00000000    -1.68763917    -1.06020486
     H         1         0.00000000     1.68763917    -1.06020486
 ----------------------------------------------------------------
 
   Interatomic distance matrix (Angstroms) 
 
                 O             H             H    
                [ 1]        [ 2]        [ 3]
  O    [ 1]     0.00000
  H    [ 2]     1.09391     0.00000
  H    [ 3]     1.09391     1.78612     0.00000
 rotcon2
   Rotational constants (in cm-1): 
          7.2599762499            23.5968671112            10.4862483476
   Rotational constants (in MHz): 
     217648.6429900936        707416.3783437609        314369.8607755446
  There are   58 basis functions.
 @CHECKOUT-I, Total execution time (CPU/WALL):        1.44/       2.41 seconds.
--executable xjoda finished with status     0 in        2.78 seconds (walltime).
 --invoking executable--
/ddn/home8/r2610/cfour_v2.1_intel_2017_eland2/bin/xvmol
 SERIAL VERSION OF MOLECULE STARTED
********************************************************************************
                    INPUT FROM MOL FILE
********************************************************************************
INTGRL        1    0    1    0    0    0    0    0    0                         
         *** CFOUR Program System (Release V0.1) ***                            
input of non-standard basis sets                                                
    2    2 X  Y       0.10E-08              0    0                              
   9999.00      3.00                                                            
          8.00000000    1    4    1    1    1    1                              
O #1   0.000000000000000   0.000000000000000   0.133605089747020                
   10    4                                                                      
   15330.0000000000       5.080000000000000E-004 -1.150000000000000E-004        
  0.000000000000000E+000  0.000000000000000E+000                                
   2299.00000000000       3.929000000000000E-003 -8.950000000000000E-004        
  0.000000000000000E+000  0.000000000000000E+000                                
   522.400000000000       2.024300000000000E-002 -4.636000000000000E-003        
  0.000000000000000E+000  0.000000000000000E+000                                
   147.300000000000       7.918100000000000E-002 -1.872400000000000E-002        
  0.000000000000000E+000  0.000000000000000E+000                                
   47.5500000000000       0.230687000000000      -5.846300000000000E-002        
  0.000000000000000E+000  0.000000000000000E+000                                
   16.7600000000000       0.433118000000000      -0.136463000000000             
  0.000000000000000E+000  0.000000000000000E+000                                
   6.20700000000000       0.350260000000000      -0.175740000000000             
  0.000000000000000E+000  0.000000000000000E+000                                
   1.75200000000000       4.272800000000000E-002  0.160934000000000             
   1.00000000000000       0.000000000000000E+000                                
  0.688200000000000      -8.154000000000000E-003  0.603418000000000             
  0.000000000000000E+000  0.000000000000000E+000                                
  0.238400000000000       2.381000000000000E-003  0.378765000000000             
  0.000000000000000E+000   1.00000000000000                                     
    5    3                                                                      
   34.4600000000000       1.592800000000000E-002  0.000000000000000E+000        
  0.000000000000000E+000                                                        
   7.74900000000000       9.974000000000000E-002  0.000000000000000E+000        
  0.000000000000000E+000                                                        
   2.28000000000000       0.310492000000000       0.000000000000000E+000        
  0.000000000000000E+000                                                        
  0.715600000000000       0.491026000000000        1.00000000000000             
  0.000000000000000E+000                                                        
  0.214000000000000       0.336337000000000       0.000000000000000E+000        
   1.00000000000000                                                             
    2    2                                                                      
   2.31400000000000        1.00000000000000       0.000000000000000E+000        
  0.645000000000000       0.000000000000000E+000   1.00000000000000             
    1    1                                                                      
   1.42800000000000        1.00000000000000                                     
          1.00000000    1    3    1    1    1                                   
H #2   0.000000000000000  -1.687639171547454  -1.060204862164929                
    5    3                                                                      
   33.8700000000000       6.068000000000000E-003  0.000000000000000E+000        
  0.000000000000000E+000                                                        
   5.09500000000000       4.530800000000000E-002  0.000000000000000E+000        
  0.000000000000000E+000                                                        
   1.15900000000000       0.202822000000000       0.000000000000000E+000        
  0.000000000000000E+000                                                        
  0.325800000000000       0.503903000000000        1.00000000000000             
  0.000000000000000E+000                                                        
  0.102700000000000       0.383421000000000       0.000000000000000E+000        
   1.00000000000000                                                             
    2    2                                                                      
   1.40700000000000        1.00000000000000       0.000000000000000E+000        
  0.388000000000000       0.000000000000000E+000   1.00000000000000             
    1    1                                                                      
   1.05700000000000        1.00000000000000                                     
FINISH                                                                          
 
********************************************************************************
OMP: Info #277: omp_set_nested routine deprecated, please use omp_set_max_active_levels instead.
 ONE- AND TWO-ELECTRON INTEGRALS OVER SYMMETRY-ADAPTED AOS ARE CALCULATED.

  SPHERICAL HARMONICS ARE USED.
  
  INTEGRALS LESS THAN  0.10E-13 ARE NEGLECTED.

  NUCLEAR REPULSION ENERGY :    8.0362168845 A.U.
  @MOLECU-I, ONE ELECTRON INTEGRALS (CPU/WALL):        0.10/       0.11 SECONDS.
  @TWOEL-I,      47643 INTEGRALS OF SYMMETRY TYPE  I I I I
  @TWOEL-I,     139318 INTEGRALS OF SYMMETRY TYPE  I J I J
  @TWOEL-I,      78179 INTEGRALS OF SYMMETRY TYPE  I I J J
  @TWOEL-I,      84951 INTEGRALS OF SYMMETRY TYPE  I J K L
  @TWOEL-I, TOTAL NUMBER OF 2-E INTEGRALS     350091.
  @MOLECU-I, TWO ELECTRON INTEGRALS (CPU/WALL):        2.56/       2.69 SECONDS.
 @CHECKOUT-I, Total execution time (CPU/WALL):        2.71/       2.87 seconds.

Running with 1 threads/proc

--executable xvmol finished with status     0 in        3.29 seconds (walltime).
 --invoking executable--
/ddn/home8/r2610/cfour_v2.1_intel_2017_eland2/bin/xvmol2ja
 @GETMEM-I,  Allocated    7629 MB of main memory.
 @CHECKOUT-I, Total execution time (CPU/WALL):        0.08/       0.14 seconds.
--executable xvmol2ja finished with status     0 in        0.50 seconds (walltime).
 --invoking executable--
/ddn/home8/r2610/cfour_v2.1_intel_2017_eland2/bin/xvscf
  There are   58 functions in the AO basis.

  There are 4 irreducible representations.

       Irrep        # of functions
         1                 23
         2                 11
         3                 17
         4                  7


  Parameters for SCF calculation: 
        SCF reference function:  RHF  
  Maximum number of iterations:  150
     Full symmetry point group: C2v 
     Computational point group: C2v 
        Initial density matrix: MOREAD                 
     SCF convergence tolerance: 10**(- 7)
  DIIS convergence acceleration:  ON
          Latest start for DIIS:   8
                     DIIS order:   6

  Memory information:     179852 words required.
  Fock matrices are constructed from AO integral file.
 @GETMEM-I,  Allocated       1 MB of main memory.
  Initialization and symmetry analysis required      0.016 seconds.

  @INITGES-I, Occupancies from core Hamiltonian:

          Alpha population by irrep:   3    1    1    0
           Beta population by irrep:   3    1    1    0


 total no. of electrons in initial guess :  0.000000000000000E+000
  --------------------------------------------------------------------
  Iteration         Total Energy            Largest Density Difference
  --------------------------------------------------------------------
       0             8.036216884520146              0.0000000000D+00
   current occupation vector 
     3  1  1  0
     3  1  1  0
       1           -61.150287331805245              0.1207870548D+02
   current occupation vector 
     3  1  1  0
     3  1  1  0
       2           -65.981604560531366              0.1205077076D+02
   current occupation vector 
     3  0  2  0
     3  0  2  0
       3           -71.024288190083297              0.7864960411D+01
   current occupation vector 
     3  1  1  0
     3  1  1  0
       4           -69.708835293687201              0.7030011437D+01
   current occupation vector 
     3  0  2  0
     3  0  2  0
       5           -72.488567967642481              0.7012121606D+01
   current occupation vector 
     3  1  1  0
     3  1  1  0
       6           -70.678235500766149              0.6582787371D+01
   current occupation vector 
     3  0  2  0
     3  0  2  0
       7           -72.912898565629888              0.6577562706D+01
   current occupation vector 
     3  1  1  0
     3  1  1  0
       8           -71.103238694167516              0.6433005320D+01
   current occupation vector 
     3  0  2  0
     3  0  2  0
       9           -75.832442668664655              0.6393233009D+01
   current occupation vector 
     3  1  1  0
     3  1  1  0
      10           -76.017969657687374              0.4273557708D+00
   current occupation vector 
     3  1  1  0
     3  1  1  0
      11           -76.018839704747890              0.3976364099D-01
   current occupation vector 
     3  1  1  0
     3  1  1  0
      12           -76.018946328942548              0.1911402388D-01
   current occupation vector 
     3  1  1  0
     3  1  1  0
      13           -76.018961175713059              0.6424821072D-02
   current occupation vector 
     3  1  1  0
     3  1  1  0
      14           -76.018961763216126              0.1156397958D-02
   current occupation vector 
     3  1  1  0
     3  1  1  0
      15           -76.018961784004190              0.2347896512D-03
   current occupation vector 
     3  1  1  0
     3  1  1  0
      16           -76.018961784694085              0.3183935787D-04
   current occupation vector 
     3  1  1  0
     3  1  1  0
      17           -76.018961784749095              0.1034511558D-04
   current occupation vector 
     3  1  1  0
     3  1  1  0
      18           -76.018961784749180              0.2043403160D-05
   current occupation vector 
     3  1  1  0
     3  1  1  0
      19           -76.018961784749507              0.1782511319D-06
   current occupation vector 
     3  1  1  0
     3  1  1  0

  SCF has converged.

 Density matrix saved to file den.dat
 total electron number:   9.99999999999999     
     E(SCF)=       -76.018961784749663              0.3704311369D-07

  Eigenvector printing suppressed.

 @PUTMOS-I, Writing converged MOs to NEWMOS. 
 @PUTMOS-I, Symmetry   1 Full Blocks  5 Partial Blocksize   3
 @PUTMOS-I, Symmetry   2 Full Blocks  2 Partial Blocksize   3
 @PUTMOS-I, Symmetry   3 Full Blocks  4 Partial Blocksize   1
 @PUTMOS-I, Symmetry   4 Full Blocks  1 Partial Blocksize   3
 @PUTFOCK-I, Writing converged Fock matrix to NEWFOCK. 
 @PUTFOCK-I, Symmetry   1 Full Blocks  5 Partial Blocksize   3
 @PUTFOCK-I, Symmetry   2 Full Blocks  2 Partial Blocksize   3
 @PUTFOCK-I, Symmetry   3 Full Blocks  4 Partial Blocksize   1
 @PUTFOCK-I, Symmetry   4 Full Blocks  1 Partial Blocksize   3


 
  ORBITAL EIGENVALUES (ALPHA)  (1H = 27.2113834 eV)

       MO #        E(hartree)               E(eV)           FULLSYM    COMPSYM
       ----   --------------------   --------------------   -------   ---------
    1     1         -20.5738784504        -559.8436945387      A1        A1 (1)
    2     2          -1.2836068829         -34.9287190251      A1        A1 (1)
    3    35          -0.6486963977         -17.6519263887      B2        B2 (3)
    4     3          -0.5429885227         -14.7754688727      A1        A1 (1)
    5    24          -0.4939194793         -13.4402323187      B1        B1 (2)
  +++++++++++++++++++++++++++++++++++++++++++++++++++++++++++++++++++++++++++++
    6     4           0.1241076274           3.3771402322      A1        A1 (1)
    7    36           0.1876684969           5.1067194219      B2        B2 (3)
    8    37           0.4974049454          13.5350766757      B2        B2 (3)
    9     5           0.5088204768          13.8457090749      A1        A1 (1)
   10     6           0.7014854723          19.0883901371      A1        A1 (1)
   11    25           0.7770151366          21.1436567893      B1        B1 (2)
   12    38           0.8071120075          21.9626342824      B2        B2 (3)
   13     7           0.8206399826          22.3307492009      A1        A1 (1)
   14    52           0.8234486896          22.4071780042      A2        A2 (4)
   15    26           0.9691196314          26.3710858497      B1        B1 (2)
   16    39           1.1098093431          30.1994475353      B2        B2 (3)
   17     8           1.2485404949          33.9745140974      A1        A1 (1)
   18     9           1.3640173275          37.1167984629      A1        A1 (1)
   19    40           1.4198923223          38.6372343678      B2        B2 (3)
   20    27           1.9576756993          53.2710640263      B1        B1 (2)
   21    53           2.0170086080          54.8855945541      A2        A2 (4)
   22    10           2.0930583382          56.9550129189      A1        A1 (1)
   23    41           2.2462550140          61.1237063994      B2        B2 (3)
   24    11           2.3171991438          63.0541943169      A1        A1 (1)
   25    12           2.6067589802          70.9335180408      A1        A1 (1)
   26    42           2.8189122397          76.7065017256      B2        B2 (3)
   27    28           3.3770254763          91.8935349871      B1        B1 (2)
   28    13           3.4531529844          93.9650697984      A1        A1 (1)
   29    54           3.4617723455          94.1996145365      A2        A2 (4)
   30    43           3.4851759025          94.8364577003      B2        B2 (3)
   31    44           3.6822610829         100.1994181047      B2        B2 (3)
   32    29           3.6992444962         100.6615602761      B1        B1 (2)
   33    14           3.8664482388         105.2114054222      A1        A1 (1)
   34    55           3.8881287977         105.8013634240      A2        A2 (4)
   35    15           3.9706772490         108.0476209812      A1        A1 (1)
   36    45           3.9914474810         108.6128077264      B2        B2 (3)
   37    30           4.0269389311         109.5785791833      B1        B1 (2)
   38    56           4.1283026196         112.3368253732      A2        A2 (4)
   39    16           4.2164688598         114.7359507394      A1        A1 (1)
   40    46           4.2521031134         115.7056080753      B2        B2 (3)
   41    31           4.5343704966         123.3864940601      B1        B1 (2)
   42    47           4.5680773762         124.3037048854      B2        B2 (3)
   43    17           4.7512431503         129.2878989889      A1        A1 (1)
   44    18           5.1715648404         140.7254336498      A1        A1 (1)
   45    48           5.5512276833         151.0565848322      B2        B2 (3)
   46    32           5.8085856835         158.0596520459      B1        B1 (2)
   47    19           6.0471490070         164.5512901069      A1        A1 (1)
   48    33           6.4931127991         176.6865818357      B1        B1 (2)
   49    57           6.5408075988         177.9844233170      A2        A2 (4)
   50    20           6.7059459184         182.4780654440      A1        A1 (1)
   51    49           6.7848596631         184.6254176078      B2        B2 (3)
   52    34           6.9845609678         190.0595663752      B1        B1 (2)
   53    21           7.1263381590         193.9175198826      A1        A1 (1)
   54    58           7.1412945263         194.3245033270      A2        A2 (4)
   55    22           7.4275736426         202.1145541200      A1        A1 (1)
   56    50           7.5085662657         204.3184754403      B2        B2 (3)
   57    51           7.6593050620         208.4202866185      B2        B2 (3)
   58    23          10.9215907482         297.1915931864      A1        A1 (1)


  VSCF finished.

 @CHECKOUT-I, Total execution time (CPU/WALL):        1.27/       1.34 seconds.
--executable xvscf finished with status     0 in        1.69 seconds (walltime).
 --invoking executable--
/ddn/home8/r2610/cfour_v2.1_intel_2017_eland2/bin/xvtran
 @GETMEM-I,  Allocated    7629 MB of main memory.
  Full RHF integral transformation
  Transformation of IIII integrals :
  1 pass through the AO integral file was required.
       47643 AO integrals were read.
       52624 MO integrals were written to HF2.
  Transformation of IIJJ integrals :
  1 pass through the AO integral file was required.
       78179 AO integrals were read.
       84402 MO integrals were written to HF2.
  Transformation of IJIJ integrals :
  1 pass through the AO integral file was required.
      139318 AO integrals were read.
      149529 MO integrals were written to HF2.
  Transformation of IJKL integrals :
  1 pass through the AO integral file was required.
       84951 AO integrals were read.
       90321 MO integrals were written to HF2.
  Summary of active molecular orbitals: 
------------------------------------------------------------------------
 
  Index      Eigenvalue    Symmetry    Index      Eigenvalue    Symmetry
------------------------------------------------------------------------
     1       -20.5738785        1        30         3.6992445        2
     2        -1.2836069        1        31         4.0269389        2
     3        -0.5429885        1        32         4.5343705        2
     4        -0.4939195        2        33         5.8085857        2
     5        -0.6486964        3        34         6.4931128        2
     6         0.1241076        1        35         6.9845610        2
     7         0.5088205        1        36         0.1876685        3
     8         0.7014855        1        37         0.4974049        3
     9         0.8206400        1        38         0.8071120        3
    10         1.2485405        1        39         1.1098093        3
    11         1.3640173        1        40         1.4198923        3
    12         2.0930583        1        41         2.2462550        3
    13         2.3171991        1        42         2.8189122        3
    14         2.6067590        1        43         3.4851759        3
    15         3.4531530        1        44         3.6822611        3
    16         3.8664482        1        45         3.9914475        3
    17         3.9706772        1        46         4.2521031        3
    18         4.2164689        1        47         4.5680774        3
    19         4.7512432        1        48         5.5512277        3
    20         5.1715648        1        49         6.7848597        3
    21         6.0471490        1        50         7.5085663        3
    22         6.7059459        1        51         7.6593051        3
    23         7.1263382        1        52         0.8234487        4
    24         7.4275736        1        53         2.0170086        4
    25        10.9215907        1        54         3.4617723        4
    26         0.7770151        2        55         3.8881288        4
    27         0.9691196        2        56         4.1283026        4
    28         1.9576757        2        57         6.5408076        4
    29         3.3770255        2        58         7.1412945        4
------------------------------------------------------------------------
  -20.5738784503952       -1.28360688288519      -0.542988522688709     
 -0.493919479252988      -0.648696397726978       0.124107627403837     
  0.508820476761697       0.701485472331348       0.820639982635886     
   1.24854049490985        1.36401732750358        2.09305833818353     
   2.31719914383114        2.60675898016919        3.45315298443925     
   3.86644823879750        3.97067724903855        4.21646885984449     
   4.75124315027983        5.17156484039051        6.04714900701987     
   6.70594591835402        7.12633815900098        7.42757364257913     
   10.9215907481731       0.777015136587598       0.969119631371150     
   1.95767569929101        3.37702547629861        3.69924449618906     
   4.02693893112625        4.53437049658210        5.80858568351489     
   6.49311279909867        6.98456096778956       0.187668496923451     
  0.497404945448763       0.807112007485857        1.10980934307273     
   1.41989232226182        2.24625501397361        2.81891223970459     
   3.48517590253316        3.68226108286269        3.99144748099829     
   4.25210311341044        4.56807737622897        5.55122768334465     
   6.78485966310066        7.50856626570043        7.65930506195625     
  0.823448689645570        2.01700860802505        3.46177234548385     
   3.88812879774453        4.12830261960207        6.54080759881450     
   7.14129452628088     
 @CHECKOUT-I, Total execution time (CPU/WALL):        0.87/       0.97 seconds.
--executable xvtran finished with status     0 in        1.42 seconds (walltime).
 --invoking executable--
/ddn/home8/r2610/cfour_v2.1_intel_2017_eland2/bin/xintprc
 @GETMEM-I,  Allocated    7629 MB of main memory.
  Processing integrals for CCSD calculation.
  @GMOIAA-I, Processing MO integrals for spin case AA.
  @GMOIAA-I, Generation of integral list completed.
                      TYPE                NUMBER
                      ----               --------
                      PPPP                262458
                      PPPH                 98028
                      PPHH                  9372
                      PHPH                  5838
                      PHHH                  1131
                      HHHH                    49

                     TOTAL                376876

  @FORMT2-I, Second-order MP correlation energies:
            ------------------------------------------------
            E(SCF)                  =    -76.018961784750 a.u.
            E2(AA)                  =     -0.034186382250 a.u.
            E2(AB)                  =     -0.215805133592 a.u.
            E2(TOT)                 =     -0.284177898091 a.u.
            Total MP2 energy        =    -76.303139682840 a.u.
            ------------------------------------------------
   Largest T2 amplitudes for spin case AB:
       _       _                 _       _                 _       _
   i   j   a   b             i   j   a   b             i   j   a   b
-----------------------------------------------------------------------------
[  4   4  26  26]-0.04435 [  3   3   8   8]-0.03254 [  4   3  26   8]-0.02907
[  3   4   8  26]-0.02907 [  5   5  36  36]-0.02866 [  5   5  37  37]-0.02826
[  5   5   7   7]-0.02548 [  5   4  36  26]-0.02545 [  4   5  26  36]-0.02545
[  5   4  38  26]-0.02212 [  4   5  26  38]-0.02212 [  5   3  36   8]-0.02209
[  3   5   8  36]-0.02209 [  5   5  38  38]-0.02089 [  3   3  37  37]-0.02074
-----------------------------------------------------------------------------
   Norm of T2AB vector (    18479 symmetry allowed elements):  0.2293353446.
-----------------------------------------------------------------------------
 @CHECKOUT-I, Total execution time (CPU/WALL):        1.38/       1.46 seconds.
--executable xintprc finished with status     0 in        1.91 seconds (walltime).
  calling xvcc 
 --invoking executable--
/ddn/home8/r2610/cfour_v2.1_intel_2017_eland2/bin/xvcc
 @GETMEM-I,  Allocated    7629 MB of main memory.
   CCSD energy will be calculated.
   The total correlation energy is -0.284177898091 a.u.
   The total correlation energy is -0.281516303149 a.u.
  Convergence information after     1 iterations: 
  Largest element of residual vector : -0.81320085E-02.
  Largest element of DIIS residual   : -0.81320085E-02.
   The total correlation energy is -0.288019789691 a.u.
  Convergence information after     2 iterations: 
  Largest element of residual vector : -0.26950707E-02.
  Largest element of DIIS residual   : -0.26585029E-02.
   The total correlation energy is -0.288394196055 a.u.
  Convergence information after     3 iterations: 
  Largest element of residual vector :  0.15969312E-02.
  Largest element of DIIS residual   :  0.14594469E-02.
   The total correlation energy is -0.289128667476 a.u.
  Convergence information after     4 iterations: 
  Largest element of residual vector :  0.32013755E-03.
  Largest element of DIIS residual   : -0.23299434E-03.
   The total correlation energy is -0.289172253116 a.u.
  Convergence information after     5 iterations: 
  Largest element of residual vector :  0.33538666E-03.
  Largest element of DIIS residual   :  0.20511780E-03.
   The total correlation energy is -0.289175786337 a.u.
  Convergence information after     6 iterations: 
  Largest element of residual vector :  0.10966729E-03.
  Largest element of DIIS residual   :  0.51247006E-04.
   The total correlation energy is -0.289176613338 a.u.
  Convergence information after     7 iterations: 
  Largest element of residual vector :  0.54998869E-04.
  Largest element of DIIS residual   :  0.13360601E-04.
   The total correlation energy is -0.289176496249 a.u.
  Convergence information after     8 iterations: 
  Largest element of residual vector :  0.97219595E-05.
  Largest element of DIIS residual   :  0.32209310E-05.
   The total correlation energy is -0.289176660757 a.u.
  Convergence information after     9 iterations: 
  Largest element of residual vector :  0.19890946E-05.
  Largest element of DIIS residual   : -0.88091311E-06.
   The total correlation energy is -0.289176589784 a.u.
  Convergence information after    10 iterations: 
  Largest element of residual vector :  0.99310853E-06.
  Largest element of DIIS residual   :  0.30154152E-06.
   The total correlation energy is -0.289176608703 a.u.
  Convergence information after    11 iterations: 
  Largest element of residual vector : -0.88348286E-07.
  Largest element of DIIS residual   : -0.67183014E-07.
  Amplitude equations converged in    11iterations.
   The total correlation energy is -0.289176604684 a.u.
   The CC iterations have converged.

   Largest T1 amplitudes for spin case AA:
   i       a                 i       a                 i       a    
-----------------------------------------------------------------------------
[  3       6    ] 0.01035 [  4      26    ]-0.01034 [  5      40    ] 0.00798
[  3      11    ] 0.00664 [  5      38    ] 0.00583 [  2       8    ]-0.00568
[  5      45    ] 0.00535 [  3      17    ]-0.00481 [  3       7    ]-0.00411
[  3       9    ]-0.00390 [  4      27    ] 0.00383 [  4      32    ] 0.00327
[  4      30    ] 0.00299 [  3      18    ] 0.00297 [  3       8    ]-0.00271
-----------------------------------------------------------------------------
   Norm of T1AA vector (       86 symmetry allowed elements):  0.0244062922.
-----------------------------------------------------------------------------
   Largest T2 amplitudes for spin case AB:
       _       _                 _       _                 _       _
   i   j   a   b             i   j   a   b             i   j   a   b
-----------------------------------------------------------------------------
[  4   4  26  26]-0.04640 [  3   3   8   8]-0.03379 [  5   5  37  37]-0.03359
[  5   5  36  36]-0.03109 [  5   5   7   7]-0.03027 [  4   3  26   8]-0.02684
[  3   4   8  26]-0.02684 [  3   3   6   6]-0.02472 [  3   3  37  37]-0.02452
[  5   5  37  36]-0.02410 [  5   5  36  37]-0.02410 [  5   4  36  26]-0.02304
[  4   5  26  36]-0.02304 [  5   3   7  37]-0.02301 [  3   5  37   7]-0.02301
-----------------------------------------------------------------------------
   Norm of T2AB vector (    18479 symmetry allowed elements):  0.2517677835.
-----------------------------------------------------------------------------
       Summary of iterative solution of CC equations 
      -----------------------------------------------------------
                       Correlation           Total
       Iteration         Energy              Energy
      -----------------------------------------------------------
            0        -0.284177898091     -76.303139682840  DIIS 
            1        -0.281516303149     -76.300478087899  DIIS 
            2        -0.288019789691     -76.306981574440  DIIS 
            3        -0.288394196055     -76.307355980805  DIIS 
            4        -0.289128667476     -76.308090452226  DIIS 
            5        -0.289172253116     -76.308134037866  DIIS 
            6        -0.289175786337     -76.308137571086  DIIS 
            7        -0.289176613338     -76.308138398088  DIIS 
            8        -0.289176496249     -76.308138280999  DIIS 
            9        -0.289176660757     -76.308138445507  DIIS 
           10        -0.289176589784     -76.308138374533  DIIS 
           11        -0.289176604684     -76.308138389434  DIIS 
      -----------------------------------------------------------
      A miracle has come to pass. The CC iterations have converged.
      The reference energy is       -76.01896178474966 a.u.
      The correlation energy is      -0.28917660468422 a.u.
      The total energy is           -76.30813838943389 a.u.
 @CHECKOUT-I, Total execution time (CPU/WALL):        2.93/       3.20 seconds.
--executable xvcc finished with status     0 in        4.15 seconds (walltime).
 --invoking executable--
/ddn/home8/r2610/cfour_v2.1_intel_2017_eland2/bin/xlambda
 @GETMEM-I,  Allocated    7629 MB of main memory.
 The Lambda equations are solved for CCSD.
  Initial lambda amplitudes: 
  Convergence information after     1 iterations: 
  Largest element of residual vector :  0.27019388E-02.
  Largest element of DIIS residual   :  0.27019388E-02.
  Convergence information after     2 iterations: 
  Largest element of residual vector :  0.42522191E-03.
  Largest element of DIIS residual   :  0.28845178E-03.
  Convergence information after     3 iterations: 
  Largest element of residual vector : -0.26351613E-03.
  Largest element of DIIS residual   : -0.27343997E-03.
  Convergence information after     4 iterations: 
  Largest element of residual vector : -0.10826015E-03.
  Largest element of DIIS residual   : -0.51476952E-04.
  Convergence information after     5 iterations: 
  Largest element of residual vector : -0.49409560E-04.
  Largest element of DIIS residual   : -0.28816307E-04.
  Convergence information after     6 iterations: 
  Largest element of residual vector : -0.17645821E-04.
  Largest element of DIIS residual   : -0.47643156E-05.
  Convergence information after     7 iterations: 
  Largest element of residual vector : -0.50434386E-05.
  Largest element of DIIS residual   : -0.21936910E-05.
  Convergence information after     8 iterations: 
  Largest element of residual vector : -0.81157373E-06.
  Largest element of DIIS residual   : -0.37313419E-06.
  Convergence information after     9 iterations: 
  Largest element of residual vector : -0.19864768E-06.
  Largest element of DIIS residual   :  0.13527072E-06.
  Convergence information after    10 iterations: 
  Largest element of residual vector :  0.52900111E-07.
  Largest element of DIIS residual   :  0.29953543E-07.
  Amplitude equations converged in    10 iterations.
      The lambda equations have converged.
 @CHECKOUT-I, Total execution time (CPU/WALL):        2.41/       2.52 seconds.
--executable xlambda finished with status     0 in        2.78 seconds (walltime).
 --invoking executable--
/ddn/home8/r2610/cfour_v2.1_intel_2017_eland2/bin/xdens
 @GETMEM-I,  Allocated    7629 MB of main memory.
  CCSD density and intermediates are calculated.
  The iterative expansion of D(ai) converged after  16 iterations.
  ----------------------------------------------------------------------
                 Natural orbital occupation numbers
  ----------------------------------------------------------------------
  1.99955  1.98004  1.96594  1.95420  1.95227  0.03565  0.03528  0.01921
  0.01250  0.00688  0.00661  0.00639  0.00578  0.00575  0.00157  0.00153
  0.00113  0.00100  0.00097  0.00088  0.00077  0.00070  0.00069  0.00051
  0.00044  0.00043  0.00041  0.00039  0.00038  0.00036  0.00022  0.00022
  0.00016  0.00016  0.00014  0.00013  0.00012  0.00008  0.00006  0.00006
  0.00005  0.00005  0.00005  0.00004  0.00004  0.00003  0.00003  0.00003
  0.00002  0.00002  0.00001  0.00001  0.00001  0.00001  0.00001  0.00001
  0.00001  0.00000
  Trace of density matrix :  10.0000000000.
  ----------------------------------------------------------------------
  Density calculation successfully completed.
 @CHECKOUT-I, Total execution time (CPU/WALL):        1.04/       1.07 seconds.
--executable xdens finished with status     0 in        1.46 seconds (walltime).
 --invoking executable--
/ddn/home8/r2610/cfour_v2.1_intel_2017_eland2/bin/xanti
 @GETMEM-I,  Allocated    7629 MB of main memory.
 CCSD MO gammas will be sorted to Mulliken order.
 @CHECKOUT-I, Total execution time (CPU/WALL):        0.71/       0.71 seconds.
--executable xanti finished with status     0 in        0.98 seconds (walltime).
 --invoking executable--
/ddn/home8/r2610/cfour_v2.1_intel_2017_eland2/bin/xbcktrn
 @GETMEM-I,  Allocated    7629 MB of main memory.
 CCSD MO gammas will be transformed to the AO basis.
 @CHECKOUT-I, Total execution time (CPU/WALL):        0.26/       0.32 seconds.
--executable xbcktrn finished with status     0 in        0.57 seconds (walltime).
 --invoking executable--
/ddn/home8/r2610/cfour_v2.1_intel_2017_eland2/bin/xvdint
 @GETMEM-I,  Allocated    7629 MB of main memory.
 One- and two-electron integral derivatives are calculated
 for RHF-CC/MBPT gradients and dipole moments.
 Spherical gaussians are used.

                     Kinetic energy integral gradient
                     --------------------------------

                         O #1 z    -0.5548776620
                         H #2 y     0.8310929964
                         H #2 z     0.5548776620


 O #1       0.0000000000            0.0000000000           -0.5548776620
 H #2 1     0.0000000000            0.4155464982            0.2774388310
 H #2 2     0.0000000000           -0.4155464982            0.2774388310



                   Nuclear attraction integral gradient
                   ------------------------------------

                         O #1 z     5.9049857668
                         H #2 y    -8.9186834497
                         H #2 z    -5.9049857668


 O #1       0.0000000000            0.0000000000            5.9049857668
 H #2 1     0.0000000000           -4.4593417248           -2.9524928834
 H #2 2     0.0000000000            4.4593417248           -2.9524928834



                      Reorthonormalization gradient
                      -----------------------------

                         O #1 z    -0.3220227274
                         H #2 y     0.4515903786
                         H #2 z     0.3220227274


 O #1       0.0000000000            0.0000000000           -0.3220227274
 H #2 1     0.0000000000            0.2257951893            0.1610113637
 H #2 2     0.0000000000           -0.2257951893            0.1610113637



                Electronic contributions to dipole moment
                -----------------------------------------

                               au             Debye

                    z      0.30976942      0.78735547

  Conversion factor used: 1 a.u. =   2.54174691 Debye 


 Evaluation of 1e integral derivatives required    0.44 seconds.
 Evaluation of 2el integral derivatives

                      Two-electron integral gradient
                      ------------------------------

                         O #1 z    -2.7804293550
                         H #2 y     4.2364830644
                         H #2 z     2.7804293550


 O #1       0.0000000000            0.0000000000           -2.7804293550
 H #2 1     0.0000000000            2.1182415322            1.3902146775
 H #2 2     0.0000000000           -2.1182415322            1.3902146775


 Evaluation of 2e integral derivatives required    5.38 seconds.

                            Molecular gradient
                            ------------------

                         O #1 z     0.0853913279
                         H #2 y    -0.1672598635
                         H #2 z    -0.0853913279


 O #1       0.0000000000            0.0000000000            0.0853913279
 H #2 1     0.0000000000           -0.0836299317           -0.0426956640
 H #2 2     0.0000000000            0.0836299317           -0.0426956640


  Molecular gradient norm 0.206E+00

                           Total dipole moment
                           -------------------

                               au             Debye

                    z     -0.74179958     -1.88546680

  Conversion factor used: 1 a.u. =   2.54174691 Debye 


 @CHECKOUT-I, Total execution time (CPU/WALL):        5.65/       5.73 seconds.
--executable xvdint finished with status     0 in        6.14 seconds (walltime).
 --invoking executable--
/ddn/home8/r2610/cfour_v2.1_intel_2017_eland2/bin/xjoda
   JODA beginning optimization cycle #  1.
 OriVec is   0.000000000000000E+000  -1.00000000000000     
  0.000000000000000E+000                    -2
  igrd and ihes are                      0                     0
  gradient from JOBARC 
   0.000000000000000   0.000000000000000   0.085391327920987
   0.000000000000000  -0.083629931744753  -0.042695663960494
   0.000000000000000   0.083629931744753  -0.042695663960494
 
   Internal coordinate energy gradients (atomic units): 
                     R                 dV/dR
 [OH   ]    2.067198145951517    0.092931419100797
 [OH   ]    2.067198145951517    0.092931419100797
 [HOH  ]    1.910262866307794    0.027783369839647
                     0                     0                     0 ****
   Optimization cycle  1.  Updating structure with Newton-Raphson step.
  @EFOL-I, Current internal coordinate Hessian written to FCMINT.
   There are   2 independent internal coordinates which will be optimized.
   Hessian matrix in totally symmetric symmetry coordinates: 
              OH        HOH  
  OH         1.000000  0.000000
  HOH        0.000000  0.250000
   The eigenvectors of the Hessian matrix: 
                   1         2
  OH         0.000000  1.000000
  HOH        1.000000  0.000000
   The eigenvalues of the Hessian matrix: 
     0.25000    1.00000
   Gradients along Hessian eigenvectors: 
     0.02778    0.13142
   There are  0 negative eigenvalues.
   Summary of Optimization Cycle: 
   The maximum unscaled step is:    0.14487.
   Scale factor set to:  1.00000.
   Forces are in hartree/bohr and hartree/radian.
   Parameter values are in Angstroms and degrees.
--------------------------------------------------------------------------
  Parameter     dV/dR           Step          Rold            Rnew
--------------------------------------------------------------------------
    OH      0.0929314191   -0.0491771889    1.0939141439    1.0447369550
    HOH     0.0277833698   -6.3674793299  109.4500000000  103.0825206701
--------------------------------------------------------------------------
  Minimum force:  0.027783370 / RMS force:  0.068586312
 Updating structure...
   Rotational constants (in cm-1): 
          8.0091776976            12.4963093107            22.3049311821
   Rotational constants (in MHz): 
     240109.1404921662        374629.9809030224        668685.1081400318


 ----------------------------------------------------------------
         Coordinates used in calculation (QCOMP) 
 ----------------------------------------------------------------
 Z-matrix   Atomic            Coordinates (in bohr)
  Symbol    Number           X              Y              Z
 ----------------------------------------------------------------
     O         8         0.00000000    -0.00000000     0.13741993
     H         1        -0.00000000    -1.54596189    -1.09047703
     H         1        -0.00000000     1.54596189    -1.09047703
 ----------------------------------------------------------------
 
   Interatomic distance matrix (Angstroms) 
 
                 O             H             H    
                [ 1]        [ 2]        [ 3]
  O    [ 1]     0.00000
  H    [ 2]     1.04474     0.00000
  H    [ 3]     1.04474     1.63618     0.00000
 rotcon2
   Rotational constants (in cm-1): 
          8.0091776976            22.3049311821            12.4963093107
   Rotational constants (in MHz): 
     240109.1404921660        668685.1081400310        374629.9809030221
  There are   58 basis functions.
 @CHECKOUT-I, Total execution time (CPU/WALL):        0.26/       0.33 seconds.
--executable xjoda finished with status     0 in        0.58 seconds (walltime).
 --invoking executable--
/ddn/home8/r2610/cfour_v2.1_intel_2017_eland2/bin/xvmol
 SERIAL VERSION OF MOLECULE STARTED
********************************************************************************
                    INPUT FROM MOL FILE
********************************************************************************
INTGRL        1    0    1    0    0    0    0    0    0                         
         *** CFOUR Program System (Release V0.1) ***                            
input of non-standard basis sets                                                
    2    2 X  Y       0.10E-08              0    0                              
   9999.00      3.00                                                            
          8.00000000    1    4    1    1    1    1                              
O #1   0.000000000000000  -0.000000000000000   0.137419933062652                
   10    4                                                                      
   15330.0000000000       5.080000000000000E-004 -1.150000000000000E-004        
  0.000000000000000E+000  0.000000000000000E+000                                
   2299.00000000000       3.929000000000000E-003 -8.950000000000000E-004        
  0.000000000000000E+000  0.000000000000000E+000                                
   522.400000000000       2.024300000000000E-002 -4.636000000000000E-003        
  0.000000000000000E+000  0.000000000000000E+000                                
   147.300000000000       7.918100000000000E-002 -1.872400000000000E-002        
  0.000000000000000E+000  0.000000000000000E+000                                
   47.5500000000000       0.230687000000000      -5.846300000000000E-002        
  0.000000000000000E+000  0.000000000000000E+000                                
   16.7600000000000       0.433118000000000      -0.136463000000000             
  0.000000000000000E+000  0.000000000000000E+000                                
   6.20700000000000       0.350260000000000      -0.175740000000000             
  0.000000000000000E+000  0.000000000000000E+000                                
   1.75200000000000       4.272800000000000E-002  0.160934000000000             
   1.00000000000000       0.000000000000000E+000                                
  0.688200000000000      -8.154000000000000E-003  0.603418000000000             
  0.000000000000000E+000  0.000000000000000E+000                                
  0.238400000000000       2.381000000000000E-003  0.378765000000000             
  0.000000000000000E+000   1.00000000000000                                     
    5    3                                                                      
   34.4600000000000       1.592800000000000E-002  0.000000000000000E+000        
  0.000000000000000E+000                                                        
   7.74900000000000       9.974000000000000E-002  0.000000000000000E+000        
  0.000000000000000E+000                                                        
   2.28000000000000       0.310492000000000       0.000000000000000E+000        
  0.000000000000000E+000                                                        
  0.715600000000000       0.491026000000000        1.00000000000000             
  0.000000000000000E+000                                                        
  0.214000000000000       0.336337000000000       0.000000000000000E+000        
   1.00000000000000                                                             
    2    2                                                                      
   2.31400000000000        1.00000000000000       0.000000000000000E+000        
  0.645000000000000       0.000000000000000E+000   1.00000000000000             
    1    1                                                                      
   1.42800000000000        1.00000000000000                                     
          1.00000000    1    3    1    1    1                                   
H #2  -0.000000000000000  -1.545961888855087  -1.090477027988016                
    5    3                                                                      
   33.8700000000000       6.068000000000000E-003  0.000000000000000E+000        
  0.000000000000000E+000                                                        
   5.09500000000000       4.530800000000000E-002  0.000000000000000E+000        
  0.000000000000000E+000                                                        
   1.15900000000000       0.202822000000000       0.000000000000000E+000        
  0.000000000000000E+000                                                        
  0.325800000000000       0.503903000000000        1.00000000000000             
  0.000000000000000E+000                                                        
  0.102700000000000       0.383421000000000       0.000000000000000E+000        
   1.00000000000000                                                             
    2    2                                                                      
   1.40700000000000        1.00000000000000       0.000000000000000E+000        
  0.388000000000000       0.000000000000000E+000   1.00000000000000             
    1    1                                                                      
   1.05700000000000        1.00000000000000                                     
FINISH                                                                          
 
********************************************************************************
OMP: Info #277: omp_set_nested routine deprecated, please use omp_set_max_active_levels instead.
 ONE- AND TWO-ELECTRON INTEGRALS OVER SYMMETRY-ADAPTED AOS ARE CALCULATED.

  SPHERICAL HARMONICS ARE USED.
  
  INTEGRALS LESS THAN  0.10E-13 ARE NEGLECTED.

  NUCLEAR REPULSION ENERGY :    8.4276979961 A.U.
  @MOLECU-I, ONE ELECTRON INTEGRALS (CPU/WALL):        0.08/       0.08 SECONDS.
  @TWOEL-I,      47643 INTEGRALS OF SYMMETRY TYPE  I I I I
  @TWOEL-I,     139318 INTEGRALS OF SYMMETRY TYPE  I J I J
  @TWOEL-I,      78179 INTEGRALS OF SYMMETRY TYPE  I I J J
  @TWOEL-I,      84951 INTEGRALS OF SYMMETRY TYPE  I J K L
  @TWOEL-I, TOTAL NUMBER OF 2-E INTEGRALS     350091.
  @MOLECU-I, TWO ELECTRON INTEGRALS (CPU/WALL):        2.44/       2.47 SECONDS.
 @CHECKOUT-I, Total execution time (CPU/WALL):        2.56/       2.59 seconds.

Running with 1 threads/proc

--executable xvmol finished with status     0 in        2.87 seconds (walltime).
 --invoking executable--
/ddn/home8/r2610/cfour_v2.1_intel_2017_eland2/bin/xvmol2ja
 @GETMEM-I,  Allocated    7629 MB of main memory.
 @CHECKOUT-I, Total execution time (CPU/WALL):        0.06/       0.07 seconds.
--executable xvmol2ja finished with status     0 in        0.29 seconds (walltime).
 --invoking executable--
/ddn/home8/r2610/cfour_v2.1_intel_2017_eland2/bin/xvscf
  There are   58 functions in the AO basis.

  There are 4 irreducible representations.

       Irrep        # of functions
         1                 23
         2                 11
         3                 17
         4                  7


  Parameters for SCF calculation: 
        SCF reference function:  RHF  
  Maximum number of iterations:  150
     Full symmetry point group: C2v 
     Computational point group: C2v 
        Initial density matrix: MOREAD                 
     SCF convergence tolerance: 10**(- 7)
  DIIS convergence acceleration:  ON
          Latest start for DIIS:   8
                     DIIS order:   6

     Alpha population by irrep:   3    1    1    0
      Beta population by irrep:   3    1    1    0


  Memory information:     179852 words required.
  Fock matrices are constructed from AO integral file.
 @GETMEM-I,  Allocated       1 MB of main memory.
  Initialization and symmetry analysis required      0.013 seconds.

 total no. of electrons in initial guess :  0.000000000000000E+000
  --------------------------------------------------------------------
  Iteration         Total Energy            Largest Density Difference
  --------------------------------------------------------------------
       0           -76.094456702034549              0.0000000000D+00
   current occupation vector 
     3  1  1  0
     3  1  1  0
       1           -76.038603368776677              0.4572556069D-01
   current occupation vector 
     3  1  1  0
     3  1  1  0
       2           -76.038786789607911              0.2124566840D-01
   current occupation vector 
     3  1  1  0
     3  1  1  0
       3           -76.038839027536852              0.1057930087D-01
   current occupation vector 
     3  1  1  0
     3  1  1  0
       4           -76.038841562614138              0.2366819472D-02
   current occupation vector 
     3  1  1  0
     3  1  1  0
       5           -76.038841882609731              0.7754457229D-03
   current occupation vector 
     3  1  1  0
     3  1  1  0
       6           -76.038841900417310              0.2591643337D-03
   current occupation vector 
     3  1  1  0
     3  1  1  0
       7           -76.038841900962126              0.4475603836D-04
   current occupation vector 
     3  1  1  0
     3  1  1  0
       8           -76.038841900969317              0.3058418371D-05
   current occupation vector 
     3  1  1  0
     3  1  1  0
       9           -76.038841900969445              0.7550616139D-06
   current occupation vector 
     3  1  1  0
     3  1  1  0
      10           -76.038841900969231              0.3765893184D-06
   current occupation vector 
     3  1  1  0
     3  1  1  0

  SCF has converged.

 Density matrix saved to file den.dat
 total electron number:   10.0000000000000     
     E(SCF)=       -76.038841900969416              0.7271520697D-07

  Eigenvector printing suppressed.

 @PUTMOS-I, Writing converged MOs to NEWMOS. 
 @PUTMOS-I, Symmetry   1 Full Blocks  5 Partial Blocksize   3
 @PUTMOS-I, Symmetry   2 Full Blocks  2 Partial Blocksize   3
 @PUTMOS-I, Symmetry   3 Full Blocks  4 Partial Blocksize   1
 @PUTMOS-I, Symmetry   4 Full Blocks  1 Partial Blocksize   3
 @PUTMOS-I, NEWMOS already exists and will be deleted. 
 @PUTFOCK-I, Writing converged Fock matrix to NEWFOCK. 
 @PUTFOCK-I, Symmetry   1 Full Blocks  5 Partial Blocksize   3
 @PUTFOCK-I, Symmetry   2 Full Blocks  2 Partial Blocksize   3
 @PUTFOCK-I, Symmetry   3 Full Blocks  4 Partial Blocksize   1
 @PUTFOCK-I, Symmetry   4 Full Blocks  1 Partial Blocksize   3
 @PUTFOCK-I, NEWFOCK already exists and will be deleted. 


 
  ORBITAL EIGENVALUES (ALPHA)  (1H = 27.2113834 eV)

       MO #        E(hartree)               E(eV)           FULLSYM    COMPSYM
       ----   --------------------   --------------------   -------   ---------
    1     1         -20.5702529136        -559.7450386675      A1        A1 (1)
    2     2          -1.3062079515         -35.5437253687      A1        A1 (1)
    3    35          -0.6625095072         -18.0278002077      B2        B2 (3)
    4     3          -0.5638374524         -15.3427970920      A1        A1 (1)
    5    24          -0.4990036034         -13.5785783696      B1        B1 (2)
  +++++++++++++++++++++++++++++++++++++++++++++++++++++++++++++++++++++++++++++
    6     4           0.1315528549           3.5797351724      A1        A1 (1)
    7    36           0.1946763601           5.2974130723      B2        B2 (3)
    8    37           0.5056314885          13.7589322930      B2        B2 (3)
    9     5           0.5554345384          15.1141421786      A1        A1 (1)
   10     6           0.6862849160          18.6747619701      A1        A1 (1)
   11     7           0.7807318818          21.2447945693      A1        A1 (1)
   12    25           0.7809587467          21.2509678761      B1        B1 (2)
   13    38           0.8090920554          22.0165141245      B2        B2 (3)
   14    52           0.8458961641          23.0180048385      A2        A2 (4)
   15    26           0.9451941281          25.7200398061      B1        B1 (2)
   16    39           1.1508968283          31.3174948488      B2        B2 (3)
   17     8           1.2066105606          32.8335425780      A1        A1 (1)
   18     9           1.4400008345          39.1844148036      A1        A1 (1)
   19    40           1.4486253003          39.4190984503      B2        B2 (3)
   20    27           2.0050572496          54.5603815579      B1        B1 (2)
   21    53           2.0256776852          55.1214921362      A2        A2 (4)
   22    10           2.1379622851          58.1769114344      A1        A1 (1)
   23    41           2.1828196125          59.3975413685      B2        B2 (3)
   24    11           2.2779262863          61.9855255333      A1        A1 (1)
   25    12           2.5511313784          69.4198140426      A1        A1 (1)
   26    42           2.8851998754          78.5102799951      B2        B2 (3)
   27    28           3.3465182729          91.0633917800      B1        B1 (2)
   28    13           3.4470091854          93.7978885262      A1        A1 (1)
   29    54           3.5308339465          96.0788762391      A2        A2 (4)
   30    43           3.5535770367          96.6977471880      B2        B2 (3)
   31    29           3.7293598712         101.4810412907      B1        B1 (2)
   32    44           3.7676001536         102.5216122767      B2        B2 (3)
   33    14           3.8682926989         105.2615957325      A1        A1 (1)
   34    55           3.9112637529         106.4308975597      A2        A2 (4)
   35    30           4.0088565378         109.0865322449      B1        B1 (2)
   36    45           4.0179735955         109.3346199979      B2        B2 (3)
   37    15           4.0707010856         110.7694079459      A1        A1 (1)
   38    56           4.1738821052         113.5771062301      A2        A2 (4)
   39    16           4.2349615658         115.2391628512      A1        A1 (1)
   40    46           4.3881582278         119.4078559552      B2        B2 (3)
   41    31           4.5976570486         125.1086086925      B1        B1 (2)
   42    47           4.7062421608         128.0633598105      B2        B2 (3)
   43    17           4.8816520427         132.8365053593      A1        A1 (1)
   44    18           5.2168002359         141.9563513397      A1        A1 (1)
   45    48           5.5080383918         149.8813444602      B2        B2 (3)
   46    32           5.9031352658         160.6324769798      B1        B1 (2)
   47    19           6.2799422355         170.8859158994      A1        A1 (1)
   48    33           6.6017517398         179.6427977023      B1        B1 (2)
   49    57           6.7066216908         182.4964541464      A2        A2 (4)
   50    49           6.7737551750         184.3232491239      B2        B2 (3)
   51    20           6.7874868909         184.6969081104      A1        A1 (1)
   52    34           7.0155415568         190.9025910613      B1        B1 (2)
   53    58           7.1492435309         194.5408067391      A2        A2 (4)
   54    21           7.1741767228         195.2192733833      A1        A1 (1)
   55    22           7.4037215203         201.4655048750      A1        A1 (1)
   56    50           7.6296314396         207.6128263048      B2        B2 (3)
   57    51           7.9033290467         215.0605168260      B2        B2 (3)
   58    23          11.5320838815         313.8039558993      A1        A1 (1)


  VSCF finished.

 @CHECKOUT-I, Total execution time (CPU/WALL):        1.01/       1.08 seconds.
--executable xvscf finished with status     0 in        1.33 seconds (walltime).
 --invoking executable--
/ddn/home8/r2610/cfour_v2.1_intel_2017_eland2/bin/xvtran
 @GETMEM-I,  Allocated    7629 MB of main memory.
  Full RHF integral transformation
  Transformation of IIII integrals :
  1 pass through the AO integral file was required.
       47643 AO integrals were read.
       52624 MO integrals were written to HF2.
  Transformation of IIJJ integrals :
  1 pass through the AO integral file was required.
       78179 AO integrals were read.
       84402 MO integrals were written to HF2.
  Transformation of IJIJ integrals :
  1 pass through the AO integral file was required.
      139318 AO integrals were read.
      149529 MO integrals were written to HF2.
  Transformation of IJKL integrals :
  1 pass through the AO integral file was required.
       84951 AO integrals were read.
       90321 MO integrals were written to HF2.
  Summary of active molecular orbitals: 
------------------------------------------------------------------------
 
  Index      Eigenvalue    Symmetry    Index      Eigenvalue    Symmetry
------------------------------------------------------------------------
     1       -20.5702529        1        30         3.7293599        2
     2        -1.3062080        1        31         4.0088565        2
     3        -0.5638375        1        32         4.5976570        2
     4        -0.4990036        2        33         5.9031353        2
     5        -0.6625095        3        34         6.6017517        2
     6         0.1315529        1        35         7.0155416        2
     7         0.5554345        1        36         0.1946764        3
     8         0.6862849        1        37         0.5056315        3
     9         0.7807319        1        38         0.8090921        3
    10         1.2066106        1        39         1.1508968        3
    11         1.4400008        1        40         1.4486253        3
    12         2.1379623        1        41         2.1828196        3
    13         2.2779263        1        42         2.8851999        3
    14         2.5511314        1        43         3.5535770        3
    15         3.4470092        1        44         3.7676002        3
    16         3.8682927        1        45         4.0179736        3
    17         4.0707011        1        46         4.3881582        3
    18         4.2349616        1        47         4.7062422        3
[...]
 [OH   ]    1.805653494860268   -0.000000801894841
 [OH   ]    1.805653494860268   -0.000000801894841
 [HOH  ]    1.815847478795968   -0.000000090611329
                     7                    -1                     0 ****
   Hessian from cycle  7 read.
   BFGS update using last two gradients and previous step.
   Optimization cycle  8.  Updating structure with Newton-Raphson step.
  @EFOL-I, Current internal coordinate Hessian written to FCMINT.
   There are   2 independent internal coordinates which will be optimized.
   Hessian matrix in totally symmetric symmetry coordinates: 
              OH        HOH  
  OH         0.557488  0.044804
  HOH        0.044804  0.166799
   The eigenvectors of the Hessian matrix: 
                   1         2
  OH         0.112492  0.993653
  HOH       -0.993653  0.112492
   The eigenvalues of the Hessian matrix: 
     0.16173    0.56256
   Gradients along Hessian eigenvectors: 
    -0.00000   -0.00000
   There are  0 negative eigenvalues.
   Summary of Optimization Cycle: 
   The maximum unscaled step is:    0.00000.
   Scale factor set to:  1.00000.
   Forces are in hartree/bohr and hartree/radian.
   Parameter values are in Angstroms and degrees.
--------------------------------------------------------------------------
  Parameter     dV/dR           Step          Rold            Rnew
--------------------------------------------------------------------------
    OH     -0.0000008019    0.0000007613    0.9555106756    0.9555114368
    HOH    -0.0000000906   -0.0000001861  104.0403967745  104.0403965884
--------------------------------------------------------------------------
  Minimum force:  0.000000091 / RMS force:  0.000000571
--------------------------------------------------------------------------------
   RMS gradient is below .10000E-04.
   Convergence criterion satisfied.  Optimization completed.
--------------------------------------------------------------------------------
   Interatomic distance matrix (Angstroms) 
 
                 O             H             H    
                [ 1]        [ 2]        [ 3]
  O    [ 1]     0.00000
  H    [ 2]     0.95551     0.00000
  H    [ 3]     0.95551     1.50632     0.00000
 @EFOL-I, Writing out completion flag to disk
 
********************************************************************************
*                          Final ZMATnew file                                  *
********************************************************************************
input of non-standard basis sets                                                
O                                                                               
H 1 OH*                                                                         
H 1 OH* 2 HOH*                                                                  
                                                                                
OH   =        0.955511436837161                                                 
HOH  =      104.040396588350347                                                 
                                                                                
*CFOUR(CALC=CCSD,BASIS=PVTZ,MEMORY_SIZE=8,MEM_UNIT=GB,REF=RHF,MULT=1)           
********************************************************************************
--executable xjoda finished with status     0 in        0.34 seconds (walltime).
 --invoking executable--
/ddn/home8/r2610/cfour_v2.1_intel_2017_eland2/bin/xvprop
 @GETMEM-I,  Allocated    7629 MB of main memory.
   Property integrals will be calculated.
    --------------------------------------------------------------
                                   Property evaluated at 
    Property type                X             Y             Z
    --------------------------------------------------------------
    Dipole moment               ----          ----          ----  
    Quadrupole moment           ----          ----          ----  
    Octopole moment             ----          ----          ----  
    Relativisitic corr.         ----          ----          ----  
    Second moment            0.0000000     0.0000000     0.0000000
    Electron density         0.0000000     0.0000000     0.1243564
    Electron density         0.0000000    -1.4232662    -0.9868132
    Electron density         0.0000000     1.4232662    -0.9868132
    Field gradient           0.0000000     0.0000000     0.1243564
    Field gradient           0.0000000    -1.4232662    -0.9868132
    Field gradient           0.0000000     1.4232662    -0.9868132
    Potential                0.0000000     0.0000000     0.1243564
    Potential                0.0000000    -1.4232662    -0.9868132
    Potential                0.0000000     1.4232662    -0.9868132
    --------------------------------------------------------------
 @CHECKOUT-I, Total execution time (CPU/WALL):        1.73/       1.77 seconds.
--executable xvprop finished with status     0 in        2.05 seconds (walltime).
 --invoking executable--
/ddn/home8/r2610/cfour_v2.1_intel_2017_eland2/bin/xprops
  occupation vector                      3
  @DRVPRP-I, Properties computed from the SCF density matrix follow.
   Components of electric dipole moment 
        X =    0.0000000000   Y =   -0.0000000000   Z =   -0.7991135515
   Components of second moment 
       XX =    5.4202673260  YY =    7.1609977056  ZZ =    6.4060649500
       XY =    0.0000000000  XZ =    0.0000000000  YZ =   -0.0000000000
   Components of electric quadrupole moment 
       XX =   -1.6980809973  YY =    1.7678832776  ZZ =   -0.0698022802
       XY =    0.0000000000  XZ =    0.0000000000  YZ =    0.0000000000
   Components of electric octopole moment 
      XXX =    0.0000000000 YYY =    0.0000000000 ZZZ =    1.8336866367
      XXY =    0.0000000000 XXZ =    1.2741430551 XYY =    0.0000000000
      YYZ =   -3.1078296918 XZZ =    0.0000000000 YZZ =   -0.0000000000
      XYZ =    0.0000000000
  Relativistic correction to the energy 
      Darwin =    0.1998754204 p**4   =   -0.2514550010 Total  =   -0.0515795806
   Charge densities at atomic centers 
          Z-matrix                               Charge
           center                               Density
              1                            298.5862462424
              2                              0.4107329240
              3                              0.4107329240
   Electric field gradient at atomic centers 
                             Z-matrix center   1:
  Atomic charge is                      8
       XX =   -1.8706959347  YY =    1.6735788385  ZZ =    0.1971170963
       XY =    0.0000000000  XZ =    0.0000000000  YZ =    0.0000000000
                             Z-matrix center   2:
  Atomic charge is                      1
       XX =   -0.2817965107  YY =    0.2414592423  ZZ =    0.0403372684
       XY =    0.0000000000  XZ =    0.0000000000  YZ =    0.3460489444
                          In kHz, Mass number   2
                          CHIxx =      -189.36702
                          CHIyy =       162.26041
                          CHIzz =        27.10661
                          CHIxy =         0.00000
                          CHIxz =         0.00000
                          CHIyz =       232.54460
                             Z-matrix center   3:
  Atomic charge is                      1
       XX =   -0.2817965107  YY =    0.2414592423  ZZ =    0.0403372684
       XY =    0.0000000000  XZ =    0.0000000000  YZ =   -0.3460489444
                          In kHz, Mass number   2
                          CHIxx =      -189.36702
                          CHIyy =       162.26041
                          CHIzz =        27.10661
                          CHIxy =         0.00000
                          CHIxz =         0.00000
                          CHIyz =      -232.54460
   Electrostatic potential at atomic centers 
          Z-matrix                             Potential
           center                               [<1/r>]
              1                            -22.3396654441
              2                             -1.0100919078
              3                             -1.0100919078
  @DRVPRP-I, Properties computed from the correlated density matrix follow.
   Components of electric dipole moment 
        X =    0.0000000000   Y =   -0.0000000000   Z =   -0.7584008843
   Components of second moment 
       XX =    5.4599724395  YY =    7.2515189574  ZZ =    6.4776609343
       XY =    0.0000000000  XZ =    0.0000000000  YZ =   -0.0000000000
   Components of electric quadrupole moment 
       XX =   -1.6567274928  YY =    1.7330125747  ZZ =   -0.0762850819
       XY =    0.0000000000  XZ =    0.0000000000  YZ =    0.0000000000
   Components of electric octopole moment 
      XXX =    0.0000000000 YYY =    0.0000000000 ZZZ =    1.7459114805
      XXY =    0.0000000000 XXZ =    1.2007156135 XYY =    0.0000000000
      YYZ =   -2.9466270940 XZZ =    0.0000000000 YZZ =   -0.0000000000
      XYZ =    0.0000000000
  Relativistic correction to the energy 
      Darwin =    0.1997570072 p**4   =   -0.2514537576 Total  =   -0.0516967504
   Charge densities at atomic centers 
          Z-matrix                               Charge
           center                               Density
              1                            298.4076566838
              2                              0.4172764614
              3                              0.4172764614
   Electric field gradient at atomic centers 
                             Z-matrix center   1:
  Atomic charge is                      8
       XX =   -1.7769141919  YY =    1.5701752658  ZZ =    0.2067389261
       XY =    0.0000000000  XZ =    0.0000000000  YZ =    0.0000000000
                             Z-matrix center   2:
  Atomic charge is                      1
       XX =   -0.2871353522  YY =    0.2477068072  ZZ =    0.0394285450
       XY =    0.0000000000  XZ =    0.0000000000  YZ =    0.3537821473
                          In kHz, Mass number   2
                          CHIxx =      -192.95471
                          CHIyy =       166.45877
                          CHIzz =        26.49595
                          CHIxy =         0.00000
                          CHIxz =         0.00000
                          CHIyz =       237.74130
                             Z-matrix center   3:
  Atomic charge is                      1
       XX =   -0.2871353522  YY =    0.2477068072  ZZ =    0.0394285450
       XY =    0.0000000000  XZ =    0.0000000000  YZ =   -0.3537821473
                          In kHz, Mass number   2
                          CHIxx =      -192.95471
                          CHIyy =       166.45877
                          CHIzz =        26.49595
                          CHIxy =         0.00000
                          CHIxz =         0.00000
                          CHIyz =      -237.74130
   Electrostatic potential at atomic centers 
          Z-matrix                             Potential
           center                               [<1/r>]
              1                            -22.3484182006
              2                             -1.0094128431
              3                             -1.0094128431
 
  Mulliken population analysis of SCF density.
   Total density is analyzed.
 
  Population analysis by orbitals.
 -------------------------------------------------------
     Z-matrix
      Center          Function          Population
 -------------------------------------------------------
         1                S              1.99863242
         1                S              1.81238116
         1                S             -0.00549662
         1                S             -0.02701239
         1                P              1.83786551
         1                P             -0.01651634
         1                P              0.10144607
         1                P              1.37699798
         1                P             -0.03403506
         1                P             -0.13965358
         1                P              1.58173086
         1                P             -0.02358010
         1                P             -0.00267338
         1                D              0.00039606
         1                D              0.00253749
         1                D              0.00000000
         1                D              0.00000000
         1                D              0.00022956
         1                D              0.00165850
         1                D              0.00007917
         1                D              0.00017800
         1                D              0.00221962
         1                D              0.01049578
         1                D              0.00019431
         1                D              0.00141048
         1                F              0.00004706
         1                F              0.00023997
         1                F              0.00017783
         1                F              0.00006686
         1                F              0.00000000
         1                F              0.00001372
         1                F              0.00002046
         1                F              0.00032306
         1                F              0.00001175
         1                F              0.00000493
         2                S              1.17550427
         3                S              1.17550427
         2                S             -0.24552027
         3                S             -0.24552027
         2                S             -0.25904376
         3                S             -0.25904376
         2                P              0.00430516
         3                P              0.00430516
         2                P              0.03026916
         3                P              0.03026916
         2                P              0.00893122
         3                P              0.00893122
         2                P              0.01000493
         3                P              0.01000493
         2                P              0.00696706
         3                P              0.00696706
         2                P              0.02126286
         3                P              0.02126286
         2                D              0.00036054
         3                D              0.00036054
         2                D              0.00198856
         3                D              0.00198856
         2                D              0.00103165
         3                D              0.00103165
         2                D              0.00099669
         3                D              0.00099669
         2                D              0.00187974
         3                D              0.00187974
         2                D              0.00086664
         3                D              0.00086664
 -------------------------------------------------------
  Population analysis by atoms (atomic charges).
 -------------------------------------------------------
     Z-matrix
      Center          Function          Population
 -------------------------------------------------------
         1                               8.48039114
         2                               0.75980443
         3                               0.75980443
 -------------------------------------------------------
 
  Mulliken population analysis of CCSD density.
   Total density is analyzed.
 
  Population analysis by orbitals.
 -------------------------------------------------------
     Z-matrix
      Center          Function          Population
 -------------------------------------------------------
         1                S              1.99571430
         1                S              1.79054827
         1                S              0.00471951
         1                S             -0.01841684
         1                P              1.82622492
         1                P             -0.04031973
         1                P              0.11584266
         1                P              1.39442773
         1                P             -0.04941270
         1                P             -0.14887020
         1                P              1.58172771
         1                P             -0.04234006
         1                P              0.00014271
         1                D              0.00158615
         1                D              0.00507924
         1                D              0.00174817
         1                D              0.00405398
         1                D              0.00200419
         1                D              0.00576589
         1                D              0.00116943
         1                D              0.00275053
         1                D              0.00370215
         1                D              0.01309134
         1                D              0.00131741
         1                D              0.00391399
         1                F              0.00020722
         1                F              0.00056602
         1                F              0.00050458
         1                F              0.00037857
         1                F              0.00040423
         1                F              0.00033990
         1                F              0.00018070
         1                F              0.00064989
         1                F              0.00034479
         1                F              0.00016661
         2                S              1.18544669
         3                S              1.18544669
         2                S             -0.25094282
         3                S             -0.25094282
         2                S             -0.25881519
         3                S             -0.25881519
         2                P              0.00476131
         3                P              0.00476131
         2                P              0.03495377
         3                P              0.03495377
         2                P              0.00858999
         3                P              0.00858999
         2                P              0.00862204
         3                P              0.00862204
         2                P              0.00697846
         3                P              0.00697846
         2                P              0.02342426
         3                P              0.02342426
         2                D              0.00038606
         3                D              0.00038606
         2                D              0.00199395
         3                D              0.00199395
         2                D              0.00104134
         3                D              0.00104134
         2                D              0.00099443
         3                D              0.00099443
         2                D              0.00172355
         3                D              0.00172355
         2                D              0.00088555
         3                D              0.00088555
 -------------------------------------------------------
  Population analysis by atoms (atomic charges).
 -------------------------------------------------------
     Z-matrix
      Center          Function          Population
 -------------------------------------------------------
         1                               8.45991326
         2                               0.77004337
         3                               0.77004337
 -------------------------------------------------------
 @CHECKOUT-I, Total execution time (CPU/WALL):        0.23/       1.25 seconds.
--executable xprops finished with status     0 in        1.56 seconds (walltime).
  The final electronic energy is       -76.338010630480653 a.u. 
  This computation required                          190.72 seconds (walltime).
--Timing info--
127.194u 55.263s 3:10.96 95.5% 0+0k 280+1319824io 1pf+0w
 
C4_FILES
