    3
Geometry Step: 9
    O      0.00000000     -0.71603315      0.00000000      6.59260702
    H      0.00000000     -0.14200298      0.77844804      0.70369649
    H     -0.00000000     -0.14200298     -0.77844804      0.70369649
